          *******************************************************
          *                                                     *
          *      GAMESS VERSION = 30 SEP 2021 (R2 Patch 2)      *
          *                                                     *
          *              doi.org/10.1063/5.0005188              *
          *                                                     *
          ************ 64 BIT WINDOWS INTEL VERSION *************

  GAMESS HAS BEEN MADE POSSIBLE WITH IMPORTANT CONTRIBUTIONS FROM
  THE FOLLOWING INDIVIDUALS (IN ALPHABETICAL ORDER):

     IVANA ADAMOVIC, CHRISTINE AIKENS, TOMOKO AKAMA,
     MELISA ALKAN, YURI ALEXEEV, YURIKO AOKI, POOJA ARORA,
     TOSHIO ASADA, ANDREY ASADCHEV, KIM K. BALDRIDGE,
     PRADIPTA BANDYOPADHYAY, TAYLOR A. BARNES, MARIA BARYSZ,
     ROB BELL, JONATHAN BENTZ, COLLEEN BERTONI,
     JERRY A. BOATZ, BRETT BODE, KURT BRORSEN, KURT R. BRORSEN,
     LAIMUTIS BYTAUTAS, CALEB CARLIN, LAURA CARRINGTON,
     GALINA CHABAN, BENOIT CHAMPAGNE, WEI CHEN, MAHITO CHIBA,
     DAN CHIPMAN, CHEOL HO CHOI, TANNER CULPITT,
     DIPAYAN DATTA, PAUL DAY, ALBERT DEFUSCO,
     NUWAN DESILVA, J. EMILIANO DEUSTUA,
     TIM DUDLEY, MICHEL DUPUIS, STEVEN T. ELBERT,
     DMITRI FEDOROV, ALEX FINDLATER, GRAHAM FLETCHER,
     MARK FREITAG, CHRISTIAN FRIEDL, DAVID GARMER,
     IGOR S. GERASIMOV, KURT GLAESEMANN, MARK S. GORDON,
     JEFFREY GOUR, FENG LONG GU, EMILIE B. GUIDEZ,
     ANASTASIA GUNINA, SHARON HAMMES-SCHIFFER, MASATAKE HARUTA,
     KIMIHIKO HIRAO, YASUHIRO IKABATA, TZVETELIN IORDANOV,
     STEPHAN IRLE, KAZUYA ISHIMURA, JOE IVANIC, FRANK JENSEN,
     JAN H. JENSEN, VISVALDAS KAIRYS, MUNEAKI KAMIYA,
     MICHIO KATOUDA, NAOAKI KAWAKAMI, DAN KEMP, BERNARD KIRTMAN,
     KAZUO KITAURA, MARIUSZ KLOBUKOWSKI, MASATO KOBAYASHI,
     PRAKASHAN KORAMBATH, JACEK KORCHOWIEC, SHIRO KOSEKI,
     KAROL KOWALSKI, JIMMY KROMANN, STANISLAW KUCHARSKI,
     HENRY KURTZ, SAROM SOK LEANG, HUI LI, SHUHUA LI, WEI LI,
     JESSE LUTZ, ALEKSANDR O. LYKHIN, MARCIN MAKOWSKI,
     JOANI MATO, NIKITA MATSUNAGA, BENEDETTA MENNUCCI,
     GRANT MERRILL, NORIYUKI MINEZAWA, VLADIMIR MIRONOV,
     EISAKU MIYOSHI, JOHN A. MONTGOMERY JR., HIROTOSHI MORI,
     JONATHAN MULLIN, MONIKA MUSIAL, SHIGERU NAGASE,
     TAKESHI NAGATA, HIROMI NAKAI, TAKAHITO NAKAJIMA,
     YUYA NAKAJIMA, HARUYUKI NAKANO, HIROYA NAKATA, SEAN NEDD,
     HEATHER NETZLOFF, KIET A. NGUYEN, YOSHIO NISHIMOTO,
     BOSILJKA NJEGIC, RYAN OLSON, MIKE PAK, ROBERTO PEVERATI,
     BUU PHAM, PIOTR PIECUCH, ANNA POMOGAEVA, DAVID POOLE,
     SPENCER PRUITT, OLIVIER QUINET, LUKE ROSKOP,
     KLAUS RUEDENBERG, ANDREW SAND, TOSAPORN SATTASATHUCHANA,
     NOZOMI SAWADA, MICHAEL W. SCHMIDT, PATRICK E. SCHNEIDER,
     JUNJI SEINO, PRACHI SHARMA, JUN SHEN, JIM SHOEMAKER,
     YINAN SHU, DEJUN SI, JONATHAN SKONE, LYUDMILA SLIPCHENKO,
     TONY SMITH, JIE SONG, MARK SPACKMAN, CASPER STEINMANN,
     WALT STEVENS, PEIFENG SU, SHUJUN SU, CHET SWALINA,
     TETSUYA TAKETSUGU, ZHEN TAO, NANDUN THELLAMUREGE
     SEIKEN TOKURA, JACOPO TOMASI, TSUGUKI TOUMA, TAKAO TSUNEDA,
     HIROAKI UMEDA, JORGE LUIS GALVEZ VALLEJO, YALI WANG,
     SIMON WEBB, AARON WEST, THERESA L. WINDUS, MARTA WLOCH,
     PENG XU, KIYOSHI YAGI, SUSUMU YANAGISAWA, YANG YANG,
     SOOHAENG YOO, TAKESHI YOSHIKAWA, FEDERICO ZAHARIEV,
     TOBY ZENG

  WHO ARE SUPPORTED BY THEIR INSTITUTION/UNIVERSITY/COMPANY/GROUP
  (IN ALPHABETICAL ORDER):

     EP ANALYTICS, FACULTES UNIVERSITAIRES NOTRE-DAME DE LA PAIX,
     INSTITUTE FOR MOLECULAR SCIENCE, IOWA STATE UNIVERSITY,
     JACKSON STATE UNIVERSITY, JOHANNES KEPLER UNIVERSITY LINZ,
     KYUSHU UNIVERSITY, MICHIGAN STATE UNIVERSITY,
     MIE UNIVERSITY, THE MOLECULAR SCIENCES SOFTWARE INSTITUTE,
     MOSCOW STATE UNIVERSITY,
     N. COPERNICUS UNIVERSITY, NAGOYA UNIVERSITY,
     NANJING UNIVERSITY, NAT. INST. OF ADVANCED INDUSTRIAL
     SCIENCE AND TECHNOLOGY, NATIONAL INST. OF STANDARDS AND
     TECHNOLOGY, NESMEYANOV INSTITUTE OF ORGANOELEMENT COMPOUNDS
     OF RUSSIAN ACADEMY OF SCIENCES, OSAKA PREFECTURE UNIVERSITY,
     PENNSYLVANIA STATE UNIVERSITY, TOKYO INSTITUTE OF TECHNOLOGY,
     UNIVERSITY OF AARHUS, UNIVERSITY OF ALBERTA,
     UNIVERSITY OF CALIFORNIA AT SANTA BARBARA,
     UNIVERSITY OF COPENHAGEN, UNIVERSITY OF IOWA,
     UNIVERSITY OF MEMPHIS, UNIVERSITY OF MINNESOTA,
     UNIVERSITY OF NEBRASKA, UNIVERSITY OF NEW ENGLAND,
     UNIVERSITY OF NOTRE DAME, UNIVERSITY OF PISA,
     UNIVERSITY OF SILESIA, UNIVERSITY OF TOKYO,
     UNIVERSITY OF ZURICH, WASEDA UNIVERSITY, YALE UNIVERSITY

  GAMESS SOFTWARE MANAGEMENT TEAM FOR THIS RELEASE:
     MARK S. GORDON (TEAM LEAD),
     BRETT BODE (SENIOR ADVISOR),
     GIUSEPPE BARCA,
     COLLEEN BERTONI,
     KRISTOPHER KEIPERT (ADVISOR),
     SAROM S. LEANG (DEVELOPMENT LEAD),
     BUU PHAM,
     JORGE LUIS GALVEZ VALLEJO (WEBSITE ADMINISTRATOR),
     PENG XU


 PARALLEL VERSION RUNNING ON        2 PROCESSORS IN        2 NODES.

 EXECUTION OF GAMESS BEGUN 23:42:11 15-MAR-2023    

            ECHO OF THE FIRST FEW INPUT CARDS -
 INPUT CARD> $CONTRL SCFTYP=ROHF RUNTYP=OPTIMIZE MULT=2 $END                                
 INPUT CARD> $BASIS GBASIS=N311 NGAUSS=6 NDFUNC=1  $END                                     
 INPUT CARD> $DATA                                                                          
 INPUT CARD>    6-311G(d) CN                                                                
 INPUT CARD>Cnv 4                                                                           
 INPUT CARD>                                                                                
 INPUT CARD>C  6.0   0.0 0.0 0.0                                                            
 INPUT CARD>N  7.0   0.0 0.0 1.1718                                                         
 INPUT CARD>  $END                                                                          
    1000000 WORDS OF MEMORY AVAILABLE

     BASIS OPTIONS
     -------------
     GBASIS=N311         IGAUSS=       6      POLAR=POPN311 
     NDFUNC=       1     NFFUNC=       0     DIFFSP=       F
     NPFUNC=       0      DIFFS=       F     BASNAM=        


     RUN TITLE
     ---------
     6-311G(d) CN                                                                

 THE POINT GROUP OF THE MOLECULE IS CNV     
 THE ORDER OF THE PRINCIPAL AXIS IS     4

 ATOM      ATOMIC                      COORDINATES (BOHR)
           CHARGE         X                   Y                   Z
 C           6.0     0.0000000000        0.0000000000        0.0000000000
 N           7.0     0.0000000000        0.0000000000        2.2143809124

          INTERNUCLEAR DISTANCES (ANGS.)
          ------------------------------

                1 C          2 N     

   1 C       0.0000000    1.1718000 *
   2 N       1.1718000 *  0.0000000  

  * ... LESS THAN  3.000


     ATOMIC BASIS SET
     ----------------
 THE CONTRACTED PRIMITIVE FUNCTIONS HAVE BEEN UNNORMALIZED
 THE CONTRACTED BASIS FUNCTIONS ARE NOW NORMALIZED TO UNITY

  SHELL TYPE  PRIMITIVE        EXPONENT          CONTRACTION COEFFICIENT(S)

 C         

      1   S       1          4563.2400000    0.001966650249
      1   S       2           682.0240000    0.015230601932
      1   S       3           154.9730000    0.076126909656
      1   S       4            44.4553000    0.260801033080
      1   S       5            13.0290000    0.616462078191
      1   S       6             1.8277300    0.221006028032

      2   L       7            20.9642000    0.114660080729    0.040248692673
      2   L       8             4.8033100    0.919999647749    0.237593956746
      2   L       9             1.4593300   -0.003030682134    0.815853851473

      3   L      10             0.4834560    1.000000000000    1.000000000000

      4   L      11             0.1455850    1.000000000000    1.000000000000

      5   D      12             0.6260000    1.000000000000

 N         

      6   S      13          6293.4800000    0.001969788147
      6   S      14           949.0440000    0.014961285923
      6   S      15           218.7760000    0.073500530843
      6   S      16            63.6916000    0.248936765774
      6   S      17            18.8282000    0.602459433142
      6   S      18             2.7202300    0.256201758938

      7   L      19            30.6331000    0.111906079519    0.038311918640
      7   L      20             7.0261400    0.921666654920    0.237403115502
      7   L      21             2.1120500   -0.002569191826    0.817592397779

      8   L      22             0.6840090    1.000000000000    1.000000000000

      9   L      23             0.2008780    1.000000000000    1.000000000000

     10   D      24             0.9130000    1.000000000000

 TOTAL NUMBER OF BASIS SET SHELLS             =   10
 NUMBER OF CARTESIAN GAUSSIAN BASIS FUNCTIONS =   38
 NUMBER OF ELECTRONS                          =   13
 CHARGE OF MOLECULE                           =    0
 SPIN MULTIPLICITY                            =    2
 NUMBER OF OCCUPIED ORBITALS (ALPHA)          =    7
 NUMBER OF OCCUPIED ORBITALS (BETA )          =    6
 TOTAL NUMBER OF ATOMS                        =    2
 THE NUCLEAR REPULSION ENERGY IS       18.9669264961

 THIS MOLECULE IS RECOGNIZED AS BEING LINEAR,
 ORBITAL LZ DEGENERACY TOLERANCE ETOLLZ= 1.00E-06

     $CONTRL OPTIONS
     ---------------
 SCFTYP=ROHF         RUNTYP=OPTIMIZE     EXETYP=RUN     
 MPLEVL=       0     CITYP =NONE         CCTYP =NONE         VBTYP =NONE    
 DFTTYP=NONE         TDDFT =NONE    
 MULT  =       2     ICHARG=       0     NZVAR =       0     COORD =UNIQUE  
 PP    =NONE         RELWFN=NONE         LOCAL =NONE         NUMGRD=       F
 ISPHER=      -1     NOSYM =       0     MAXIT =      30     UNITS =ANGS    
 PLTORB=       F     MOLPLT=       F     AIMPAC=       F     FRIEND=        
 NPRINT=       7     IREST =       0     GEOM  =INPUT   
 NORMF =       0     NORMP =       0     ITOL  =      20     ICUT  =       9
 INTTYP=BEST         GRDTYP=BEST         QMTTOL= 1.0E-06

     $SYSTEM OPTIONS
     ---------------
  REPLICATED MEMORY=     1000000 WORDS (ON EVERY NODE).
 DISTRIBUTED MEMDDI=           0 MILLION WORDS IN AGGREGATE,
 MEMDDI DISTRIBUTED OVER   2 PROCESSORS IS           0 WORDS/PROCESSOR.
 TOTAL MEMORY REQUESTED ON EACH PROCESSOR=     1000000 WORDS.
 TIMLIM=      525600.00 MINUTES, OR     365.0 DAYS.
 PARALL= T  BALTYP=  DLB     KDIAG=    0  COREFL= F
 MXSEQ2=     300 MXSEQ3=     150  mem10=         0  mem22=         0

          ----------------
          PROPERTIES INPUT
          ----------------

     MOMENTS            FIELD           POTENTIAL          DENSITY
 IEMOM =       1   IEFLD =       0   IEPOT =       0   IEDEN =       0
 WHERE =COMASS     WHERE =NUCLEI     WHERE =NUCLEI     WHERE =NUCLEI  
 OUTPUT=BOTH       OUTPUT=BOTH       OUTPUT=BOTH       OUTPUT=BOTH    
 IEMINT=       0   IEFINT=       0                     IEDINT=       0
                                                       MORB  =       0
          EXTRAPOLATION IN EFFECT
          DIIS IN EFFECT
 ORBITAL PRINTING OPTION: NPREO=     1    38     2     1

     -------------------------------
     INTEGRAL TRANSFORMATION OPTIONS
     -------------------------------
     NWORD  =            0
     CUTOFF = 1.0E-09     MPTRAN =       0
     DIRTRF =       F     AOINTS =DUP     

          ----------------------
          INTEGRAL INPUT OPTIONS
          ----------------------
 NOPK  =       1 NORDER=       0 SCHWRZ=       F

     ------------------------------------------
     THE POINT GROUP IS CNV, NAXIS= 4, ORDER= 8
     ------------------------------------------

     DIMENSIONS OF THE SYMMETRY SUBSPACES ARE
 A1  =   18     A2  =    0     B1  =    2     B2  =    2     E   =    8

 ..... DONE SETTING UP THE RUN .....
 CPU     0: STEP CPU TIME=     0.02 TOTAL CPU TIME=          0.0 (      0.0 MIN)
 TOTAL WALL CLOCK TIME=          0.0 SECONDS, CPU UTILIZATION IS    97.66%


          -----------------------------
          STATIONARY POINT LOCATION RUN
          -----------------------------

 OBTAINING INITIAL HESSIAN, HESS=GUESS   
 CARTESIAN COORDINATE OPTIMIZATION USING BADGER'S RULE FORCE CONSTANT GUESS

          PARAMETERS CONTROLLING GEOMETRY SEARCH ARE
          METHOD =QA                  UPHESS =BFGS    
          NNEG   =         0          NFRZ   =         0
          NSTEP  =        50          IFOLOW =         1
          HESS   =GUESS               RESTAR =         F
          IHREP  =         0          HSSEND =         F
          NPRT   =         0          NPUN   =         0
          OPTTOL = 1.000E-04          RMIN   = 1.500E-03
          RMAX   = 1.000E-01          RLIM   = 7.000E-02
          DXMAX  = 3.000E-01          PURIFY =         F
          MOVIE  =         F          TRUPD  =         T
          TRMAX  = 5.000E-01          TRMIN  = 5.000E-02
          ITBMAT =         5          STPT   =         F
          STSTEP = 1.000E-02          PROJCT=          T

 BEGINNING GEOMETRY SEARCH POINT NSERCH=   0 ...

 COORDINATES OF SYMMETRY UNIQUE ATOMS (ANGS)
   ATOM   CHARGE       X              Y              Z
 ------------------------------------------------------------
 C           6.0   0.0000000000   0.0000000000   0.0000000000
 N           7.0   0.0000000000   0.0000000000   1.1718000000
 COORDINATES OF ALL ATOMS ARE (ANGS)
   ATOM   CHARGE       X              Y              Z
 ------------------------------------------------------------
 C           6.0   0.0000000000   0.0000000000   0.0000000000
 N           7.0   0.0000000000   0.0000000000   1.1718000000

          ********************
          1 ELECTRON INTEGRALS
          ********************
 ...... END OF ONE-ELECTRON INTEGRALS ......
 CPU     0: STEP CPU TIME=     0.00 TOTAL CPU TIME=          0.0 (      0.0 MIN)
 TOTAL WALL CLOCK TIME=          0.0 SECONDS, CPU UTILIZATION IS    86.81%

          -------------
          GUESS OPTIONS
          -------------
          GUESS =HUCKEL            NORB  =       0          NORDER=       0
          MIX   =       F          PRTMO =       F          PUNMO =       F
          TOLZ  = 1.0E-08          TOLE  = 1.0E-05
          SYMDEN=       F          PURIFY=       F

 INITIAL GUESS ORBITALS GENERATED BY HUCKEL   ROUTINE.
 HUCKEL GUESS REQUIRES     12706 WORDS.

 SYMMETRIES FOR INITIAL GUESS ORBITALS FOLLOW.  ALPHA SET(S).
     7 ORBITALS ARE OCCUPIED (    2 CORE ORBITALS).
     3=A1       4=E        5=E        6=A1       7=A1       8=E        9=E   
    10=A1      11=A1      12=A1      13=A1      14=A1      15=A1      16=A1  
    17=A1  

 SYMMETRIES FOR INITIAL GUESS ORBITALS FOLLOW.   BETA SET(S).
     6 ORBITALS ARE OCCUPIED (    2 CORE ORBITALS).
     3=A1       4=E        5=E        6=A1       7=A1       8=E        9=E   
    10=A1      11=A1      12=A1      13=A1      14=A1      15=A1      16=A1  
 ...... END OF INITIAL ORBITAL SELECTION ......
 CPU     0: STEP CPU TIME=     0.02 TOTAL CPU TIME=          0.0 (      0.0 MIN)
 TOTAL WALL CLOCK TIME=          0.0 SECONDS, CPU UTILIZATION IS   135.87%

                    ----------------------
                    AO INTEGRAL TECHNOLOGY
                    ----------------------
     S,P,L SHELL ROTATED AXIS INTEGRALS, REPROGRAMMED BY
        KAZUYA ISHIMURA (IMS) AND JOSE SIERRA (SYNSTAR).
     S,P,D,L SHELL ROTATED AXIS INTEGRALS PROGRAMMED BY
        KAZUYA ISHIMURA (INSTITUTE FOR MOLECULAR SCIENCE).
     S,P,D,F,G SHELL TO TOTAL QUARTET ANGULAR MOMENTUM SUM 5,
        ERIC PROGRAM BY GRAHAM FLETCHER (ELORET AND NASA ADVANCED
        SUPERCOMPUTING DIVISION, AMES RESEARCH CENTER).
     S,P,D,F,G,L SHELL GENERAL RYS QUADRATURE PROGRAMMED BY
        MICHEL DUPUIS (PACIFIC NORTHWEST NATIONAL LABORATORY).

          --------------------
          2 ELECTRON INTEGRALS
          --------------------

 THE -PK- OPTION IS OFF, THE INTEGRALS ARE NOT IN SUPERMATRIX FORM.
 STORING   15000 INTEGRALS/RECORD ON DISK, USING 12 BYTES/INTEGRAL.
 TWO ELECTRON INTEGRAL EVALUATION REQUIRES   90451 WORDS OF MEMORY.
 II,JST,KST,LST =  1  1  1  1 NREC =         1 INTLOC =    1
 II,JST,KST,LST =  2  1  1  1 NREC =         1 INTLOC =    1
 II,JST,KST,LST =  3  1  1  1 NREC =         1 INTLOC =    2
 II,JST,KST,LST =  4  1  1  1 NREC =         1 INTLOC =  128
 II,JST,KST,LST =  5  1  1  1 NREC =         1 INTLOC =  417
 II,JST,KST,LST =  6  1  1  1 NREC =         1 INTLOC =  696
 II,JST,KST,LST =  7  1  1  1 NREC =         1 INTLOC = 1997
 II,JST,KST,LST =  8  1  1  1 NREC =         1 INTLOC = 4657
 II,JST,KST,LST =  9  1  1  1 NREC =         1 INTLOC =12084
 II,JST,KST,LST = 10  1  1  1 NREC =         2 INTLOC = 3286
 TOTAL NUMBER OF NONZERO TWO-ELECTRON INTEGRALS =               72577
          6 INTEGRAL RECORDS WERE STORED ON DISK FILE  8.
  ...... END OF TWO-ELECTRON INTEGRALS .....
 CPU     0: STEP CPU TIME=     0.00 TOTAL CPU TIME=          0.0 (      0.0 MIN)
 TOTAL WALL CLOCK TIME=          0.0 SECONDS, CPU UTILIZATION IS    86.81%

          ---------------------------
                 ROHF SCF CALCULATION
          ---------------------------

     NUCLEAR ENERGY =        18.9669264961
     MAXIT = 30     NPUNCH=  2     MULT=  2
     EXTRAP=T  DAMP=F  SHIFT=F  RSTRCT=F  DIIS=T  SOSCF=F
     DENSITY MATRIX CONV=  1.00E-05
     ROHF CANONICALIZATION PARAMETERS
             C-C     O-O     V-V
     ALPHA -0.5000  0.5000  1.5000
     BETA   1.5000  0.5000 -0.5000
     MEMORY REQUIRED FOR UHF/ROHF ITERS=     44231 WORDS.

 ITER EX      TOTAL ENERGY        E CHANGE  DENSITY CHANGE    DIIS ERROR
   1  0      -91.8799437061   -91.8799437061   0.277636737   1.351623051
          * * *   INITIATING DIIS PROCEDURE   * * *
   2  1      -92.1706305613    -0.2906868553   0.298361611   0.161132173
   3  2      -92.1232131191     0.0474174423   0.152947621   0.282701581
   4  3      -92.2074337974    -0.0842206784   0.010302451   0.021256925
   5  4      -92.2080167825    -0.0005829851   0.004094702   0.003082671
   6  5      -92.2080482701    -0.0000314876   0.001330896   0.000838947
   7  6      -92.2080516264    -0.0000033562   0.000582038   0.000301736
   8  7      -92.2080521375    -0.0000005111   0.000239836   0.000166627
   9  8      -92.2080521993    -0.0000000618   0.000024926   0.000021350
  10  9      -92.2080521998    -0.0000000005   0.000002401   0.000003706
  11 10      -92.2080521998    -0.0000000000   0.000000718   0.000000539

          -----------------
          DENSITY CONVERGED
          -----------------
     TIME TO FORM FOCK OPERATORS=       0.0 SECONDS (       0.0 SEC/ITER)
     TIME TO SOLVE SCF EQUATIONS=       0.0 SECONDS (       0.0 SEC/ITER)

 FINAL ROHF ENERGY IS      -92.2080521998 AFTER  11 ITERATIONS

          --------------------
          SPIN SZ   =    0.500
          S-SQUARED =    0.750
          --------------------

 LZ VALUE ANALYSIS FOR THE MOS
 ----------------------------------------
 MO     1 (    1) HAS LZ(WEIGHT)= 0.00(100.0%) 
 MO     2 (    2) HAS LZ(WEIGHT)= 0.00(100.0%) 
 MO     3 (    3) HAS LZ(WEIGHT)= 0.00(100.0%) 
 MO     4 (    4) HAS LZ(WEIGHT)= 0.00(100.0%) 
 MO     5 (    5) HAS LZ(WEIGHT)=-1.00( 50.0%)  1.00( 50.0%) 
 MO     6 (    5) HAS LZ(WEIGHT)=-1.00( 50.0%)  1.00( 50.0%) 
 MO     7 (    6) HAS LZ(WEIGHT)= 0.00(100.0%) 
 MO     8 (    7) HAS LZ(WEIGHT)=-1.00( 50.0%)  1.00( 50.0%) 
 MO     9 (    7) HAS LZ(WEIGHT)=-1.00( 50.0%)  1.00( 50.0%) 
 MO    10 (    8) HAS LZ(WEIGHT)= 0.00(100.0%) 
 MO    11 (    9) HAS LZ(WEIGHT)= 0.00(100.0%) 
 MO    12 (   10) HAS LZ(WEIGHT)=-1.00( 50.0%)  1.00( 50.0%) 
 MO    13 (   10) HAS LZ(WEIGHT)=-1.00( 50.0%)  1.00( 50.0%) 
 MO    14 (   11) HAS LZ(WEIGHT)= 0.00(100.0%) 
 MO    15 (   12) HAS LZ(WEIGHT)=-1.00( 50.0%)  1.00( 50.0%) 
 MO    16 (   12) HAS LZ(WEIGHT)=-1.00( 50.0%)  1.00( 50.0%) 
 MO    17 (   13) HAS LZ(WEIGHT)= 0.00(100.0%) 
 MO    18 (   14) HAS LZ(WEIGHT)= 0.00(100.0%) 
 MO    19 (   15) HAS LZ(WEIGHT)=-2.00( 50.0%)  2.00( 50.0%) 
 MO    20 (   15) HAS LZ(WEIGHT)=-2.00( 50.0%)  2.00( 50.0%) 
 MO    21 (   16) HAS LZ(WEIGHT)=-1.00( 50.0%)  1.00( 50.0%) 
 MO    22 (   16) HAS LZ(WEIGHT)=-1.00( 50.0%)  1.00( 50.0%) 
 MO    23 (   17) HAS LZ(WEIGHT)= 0.00(100.0%) 
 MO    24 (   18) HAS LZ(WEIGHT)=-2.00( 50.0%)  2.00( 50.0%) 
 MO    25 (   18) HAS LZ(WEIGHT)=-2.00( 50.0%)  2.00( 50.0%) 
 MO    26 (   19) HAS LZ(WEIGHT)=-1.00( 50.0%)  1.00( 50.0%) 
 MO    27 (   19) HAS LZ(WEIGHT)=-1.00( 50.0%)  1.00( 50.0%) 
 MO    28 (   20) HAS LZ(WEIGHT)= 0.00(100.0%) 
 MO    29 (   21) HAS LZ(WEIGHT)=-1.00( 50.0%)  1.00( 50.0%) 
 MO    30 (   21) HAS LZ(WEIGHT)=-1.00( 50.0%)  1.00( 50.0%) 
 MO    31 (   22) HAS LZ(WEIGHT)= 0.00(100.0%) 
 MO    32 (   23) HAS LZ(WEIGHT)= 0.00(100.0%) 
 MO    33 (   24) HAS LZ(WEIGHT)=-1.00( 50.0%)  1.00( 50.0%) 
 MO    34 (   24) HAS LZ(WEIGHT)=-1.00( 50.0%)  1.00( 50.0%) 
 MO    35 (   25) HAS LZ(WEIGHT)= 0.00(100.0%) 
 MO    36 (   26) HAS LZ(WEIGHT)= 0.00(100.0%) 
 MO    37 (   27) HAS LZ(WEIGHT)= 0.00(100.0%) 
 MO    38 (   28) HAS LZ(WEIGHT)= 0.00(100.0%) 

          ------------
          EIGENVECTORS
          ------------

                      1          2          3          4          5
                  -15.6234   -11.3231    -1.2104    -0.5766    -0.4890
                     A1         A1         A1         A1         E   
    1  C  1  S    0.000038   0.563584  -0.073811   0.065802   0.000000
    2  C  1  S   -0.000114   0.466637  -0.120436   0.110692   0.000000
    3  C  1  X    0.000000   0.000000   0.000000   0.000000   0.176001
    4  C  1  Y    0.000000   0.000000   0.000000   0.000000   0.000000
    5  C  1  Z    0.000112  -0.001276   0.104370  -0.052455   0.000000
    6  C  1  S    0.000647   0.003362   0.309249  -0.319934   0.000000
    7  C  1  X    0.000000   0.000000   0.000000   0.000000   0.288345
    8  C  1  Y    0.000000   0.000000   0.000000   0.000000   0.000000
    9  C  1  Z    0.000809   0.001180   0.118837  -0.055878   0.000000
   10  C  1  S    0.000087   0.000766   0.066062  -0.149220   0.000000
   11  C  1  X    0.000000   0.000000   0.000000   0.000000   0.212234
   12  C  1  Y    0.000000   0.000000   0.000000   0.000000   0.000000
   13  C  1  Z   -0.000030   0.000171   0.001194   0.008181   0.000000
   14  C  1 XX   -0.000131  -0.000857  -0.012382   0.000293   0.000000
   15  C  1 YY   -0.000131  -0.000857  -0.012382   0.000293   0.000000
   16  C  1 ZZ    0.000533  -0.000236   0.016877  -0.004425   0.000000
   17  C  1 XY    0.000000   0.000000   0.000000   0.000000   0.000000
   18  C  1 XZ    0.000000   0.000000   0.000000   0.000000   0.045317
   19  C  1 YZ    0.000000   0.000000   0.000000   0.000000   0.000000
   20  N  2  S    0.557885  -0.000351  -0.100902  -0.065573   0.000000
   21  N  2  S    0.468295  -0.000375  -0.166290  -0.111996   0.000000
   22  N  2  X    0.000000   0.000000   0.000000   0.000000   0.197050
   23  N  2  Y    0.000000   0.000000   0.000000   0.000000   0.000000
   24  N  2  Z   -0.002200  -0.000093  -0.077318   0.210423   0.000000
   25  N  2  S    0.003908   0.000332   0.450145   0.325947   0.000000
   26  N  2  X    0.000000   0.000000   0.000000   0.000000   0.313840
   27  N  2  Y    0.000000   0.000000   0.000000   0.000000   0.000000
   28  N  2  Z    0.001214  -0.000426  -0.117071   0.315607   0.000000
   29  N  2  S    0.000040  -0.000476   0.299002   0.429012   0.000000
   30  N  2  X    0.000000   0.000000   0.000000   0.000000   0.255675
   31  N  2  Y    0.000000   0.000000   0.000000   0.000000   0.000000
   32  N  2  Z   -0.000266   0.000332  -0.041197   0.232708   0.000000
   33  N  2 XX   -0.000449  -0.000075  -0.010998   0.009838   0.000000
   34  N  2 YY   -0.000449  -0.000075  -0.010998   0.009838   0.000000
   35  N  2 ZZ   -0.000214   0.000489   0.031037  -0.029709   0.000000
   36  N  2 XY    0.000000   0.000000   0.000000   0.000000   0.000000
   37  N  2 XZ    0.000000   0.000000   0.000000   0.000000  -0.037829
   38  N  2 YZ    0.000000   0.000000   0.000000   0.000000   0.000000

                      6          7          8          9         10
                   -0.4890    -0.3401     0.1266     0.1266     0.3361
                     E          A1         E          E          A1  
    1  C  1  S    0.000000  -0.068688   0.000000   0.000000   0.013983
    2  C  1  S    0.000000  -0.116026   0.000000   0.000000   0.029380
    3  C  1  X    0.000000   0.000000   0.178341   0.000000   0.000000
    4  C  1  Y    0.176001   0.000000   0.000000   0.178341   0.000000
    5  C  1  Z    0.000000  -0.233579   0.000000   0.000000   0.024673
    6  C  1  S    0.000000   0.360080   0.000000   0.000000  -0.024907
    7  C  1  X    0.000000   0.000000   0.282710   0.000000   0.000000
    8  C  1  Y    0.288345   0.000000   0.000000   0.282710   0.000000
    9  C  1  Z    0.000000  -0.353244   0.000000   0.000000   0.050767
   10  C  1  S    0.000000   0.401087   0.000000   0.000000  -2.954769
   11  C  1  X    0.000000   0.000000   0.746356   0.000000   0.000000
   12  C  1  Y    0.212234   0.000000   0.000000   0.746356   0.000000
   13  C  1  Z    0.000000  -0.197096   0.000000   0.000000  -2.488631
   14  C  1 XX    0.000000   0.001399   0.000000   0.000000   0.004132
   15  C  1 YY    0.000000   0.001399   0.000000   0.000000   0.004132
   16  C  1 ZZ    0.000000   0.038295   0.000000   0.000000   0.047299
   17  C  1 XY    0.000000   0.000000   0.000000   0.000000   0.000000
   18  C  1 XZ    0.000000   0.000000  -0.076725   0.000000   0.000000
   19  C  1 YZ    0.045317   0.000000   0.000000  -0.076725   0.000000
   20  N  2  S    0.000000   0.010872   0.000000   0.000000  -0.042326
   21  N  2  S    0.000000   0.017619   0.000000   0.000000  -0.082381
   22  N  2  X    0.000000   0.000000  -0.191346   0.000000   0.000000
   23  N  2  Y    0.197050   0.000000   0.000000  -0.191346   0.000000
   24  N  2  Z    0.000000   0.112496   0.000000   0.000000  -0.045593
   25  N  2  S    0.000000  -0.062753   0.000000   0.000000   0.079081
   26  N  2  X    0.000000   0.000000  -0.247749   0.000000   0.000000
   27  N  2  Y    0.313840   0.000000   0.000000  -0.247749   0.000000
   28  N  2  Z    0.000000   0.176926   0.000000   0.000000  -0.025002
   29  N  2  S    0.000000   0.068199   0.000000   0.000000   3.312468
   30  N  2  X    0.000000   0.000000  -0.666305   0.000000   0.000000
   31  N  2  Y    0.255675   0.000000   0.000000  -0.666305   0.000000
   32  N  2  Z    0.000000   0.113980   0.000000   0.000000  -1.205819
   33  N  2 XX    0.000000   0.006928   0.000000   0.000000  -0.059088
   34  N  2 YY    0.000000   0.006928   0.000000   0.000000  -0.059088
   35  N  2 ZZ    0.000000  -0.030119   0.000000   0.000000  -0.009795
   36  N  2 XY    0.000000   0.000000   0.000000   0.000000   0.000000
   37  N  2 XZ    0.000000   0.000000  -0.011707   0.000000   0.000000
   38  N  2 YZ   -0.037829   0.000000   0.000000  -0.011707   0.000000

                     11         12         13         14         15
                    0.4428     0.5450     0.5450     0.7063     0.8776
                     A1         E          E          A1         E   
    1  C  1  S    0.076575   0.000000   0.000000  -0.042491   0.000000
    2  C  1  S    0.095332   0.000000   0.000000  -0.051074   0.000000
    3  C  1  X    0.000000  -0.211280   0.000000   0.000000   0.091487
    4  C  1  Y    0.000000   0.000000  -0.211280   0.000000   0.000000
    5  C  1  Z    0.130065   0.000000   0.000000   0.090112   0.000000
    6  C  1  S   -0.975452   0.000000   0.000000   0.812471   0.000000
    7  C  1  X    0.000000  -0.902132   0.000000   0.000000   0.199359
    8  C  1  Y    0.000000   0.000000  -0.902132   0.000000   0.000000
    9  C  1  Z    0.518355   0.000000   0.000000   0.563332   0.000000
   10  C  1  S    2.160600   0.000000   0.000000   0.947299   0.000000
   11  C  1  X    0.000000   1.169451   0.000000   0.000000  -0.752492
   12  C  1  Y    0.000000   0.000000   1.169451   0.000000   0.000000
   13  C  1  Z   -0.169083   0.000000   0.000000   0.229955   0.000000
   14  C  1 XX   -0.174974   0.000000   0.000000   0.125667   0.000000
   15  C  1 YY   -0.174974   0.000000   0.000000   0.125667   0.000000
   16  C  1 ZZ   -0.240156   0.000000   0.000000   0.197599   0.000000
   17  C  1 XY    0.000000   0.000000   0.000000   0.000000   0.000000
   18  C  1 XZ    0.000000  -0.009809   0.000000   0.000000  -0.128231
   19  C  1 YZ    0.000000   0.000000  -0.009809   0.000000   0.000000
   20  N  2  S    0.017692   0.000000   0.000000   0.037109   0.000000
   21  N  2  S    0.028657   0.000000   0.000000   0.058502   0.000000
   22  N  2  X    0.000000  -0.015245   0.000000   0.000000  -0.226864
   23  N  2  Y    0.000000   0.000000  -0.015245   0.000000   0.000000
   24  N  2  Z   -0.005314   0.000000   0.000000  -0.076704   0.000000
   25  N  2  S   -0.091327   0.000000   0.000000  -0.164761   0.000000
   26  N  2  X    0.000000  -0.092353   0.000000   0.000000  -0.875545
   27  N  2  Y    0.000000   0.000000  -0.092353   0.000000   0.000000
   28  N  2  Z   -0.047982   0.000000   0.000000  -0.334205   0.000000
   29  N  2  S   -0.710880   0.000000   0.000000  -1.313264   0.000000
   30  N  2  X    0.000000   0.026445   0.000000   0.000000   1.479643
   31  N  2  Y    0.000000   0.000000   0.026445   0.000000   0.000000
   32  N  2  Z    0.445227   0.000000   0.000000   1.999414   0.000000
   33  N  2 XX    0.000036   0.000000   0.000000  -0.025648   0.000000
   34  N  2 YY    0.000036   0.000000   0.000000  -0.025648   0.000000
   35  N  2 ZZ   -0.015211   0.000000   0.000000  -0.035385   0.000000
   36  N  2 XY    0.000000   0.000000   0.000000   0.000000   0.000000
   37  N  2 XZ    0.000000   0.039293   0.000000   0.000000   0.017754
   38  N  2 YZ    0.000000   0.000000   0.039293   0.000000   0.000000

                     16         17         18         19         20
                    0.8776     0.9544     1.1944     1.4574     1.4574
                     E          A1         A1         B2         B1  
    1  C  1  S    0.000000   0.052576  -0.024663   0.000000   0.000000
    2  C  1  S    0.000000   0.077768  -0.046266   0.000000   0.000000
    3  C  1  X    0.000000   0.000000   0.000000   0.000000   0.000000
    4  C  1  Y    0.091487   0.000000   0.000000   0.000000   0.000000
    5  C  1  Z    0.000000  -0.199144   0.103107   0.000000   0.000000
    6  C  1  S    0.000000  -0.593281   0.002921   0.000000   0.000000
    7  C  1  X    0.000000   0.000000   0.000000   0.000000   0.000000
    8  C  1  Y    0.199359   0.000000   0.000000   0.000000   0.000000
    9  C  1  Z    0.000000  -0.714239  -0.207057   0.000000   0.000000
   10  C  1  S    0.000000  -0.556511  -4.281579   0.000000   0.000000
   11  C  1  X    0.000000   0.000000   0.000000   0.000000   0.000000
   12  C  1  Y   -0.752492   0.000000   0.000000   0.000000   0.000000
   13  C  1  Z    0.000000  -0.113188  -2.353233   0.000000   0.000000
   14  C  1 XX    0.000000  -0.232487   0.170138   0.000000   0.823736
   15  C  1 YY    0.000000  -0.232487   0.170138   0.000000  -0.823736
   16  C  1 ZZ    0.000000   0.180468  -0.393944   0.000000   0.000000
   17  C  1 XY    0.000000   0.000000   0.000000   0.951168   0.000000
   18  C  1 XZ    0.000000   0.000000   0.000000   0.000000   0.000000
   19  C  1 YZ   -0.128231   0.000000   0.000000   0.000000   0.000000
   20  N  2  S    0.000000   0.006406   0.096718   0.000000   0.000000
   21  N  2  S    0.000000  -0.011401   0.126112   0.000000   0.000000
   22  N  2  X    0.000000   0.000000   0.000000   0.000000   0.000000
   23  N  2  Y   -0.226864   0.000000   0.000000   0.000000   0.000000
   24  N  2  Z    0.000000  -0.258534   0.108541   0.000000   0.000000
   25  N  2  S    0.000000  -0.380482  -1.604950   0.000000   0.000000
   26  N  2  X    0.000000   0.000000   0.000000   0.000000   0.000000
   27  N  2  Y   -0.875545   0.000000   0.000000   0.000000   0.000000
   28  N  2  Z    0.000000  -0.652742   0.054105   0.000000   0.000000
   29  N  2  S    0.000000   1.704003   6.279160   0.000000   0.000000
   30  N  2  X    0.000000   0.000000   0.000000   0.000000   0.000000
   31  N  2  Y    1.479643   0.000000   0.000000   0.000000   0.000000
   32  N  2  Z    0.000000  -0.283665  -2.163948   0.000000   0.000000
   33  N  2 XX    0.000000  -0.066938  -0.288780   0.000000   0.169914
   34  N  2 YY    0.000000  -0.066938  -0.288780   0.000000  -0.169914
   35  N  2 ZZ    0.000000  -0.197747  -0.167495   0.000000   0.000000
   36  N  2 XY    0.000000   0.000000   0.000000   0.196200   0.000000
   37  N  2 XZ    0.000000   0.000000   0.000000   0.000000   0.000000
   38  N  2 YZ    0.017754   0.000000   0.000000   0.000000   0.000000

                     21         22         23         24         25
                    1.5583     1.5583     2.1199     2.3587     2.3587
                     E          E          A1         B2         B1  
    1  C  1  S    0.000000   0.000000  -0.034534   0.000000   0.000000
    2  C  1  S    0.000000   0.000000  -0.090163   0.000000   0.000000
    3  C  1  X    0.015225   0.000000   0.000000   0.000000   0.000000
    4  C  1  Y    0.000000   0.015225   0.000000   0.000000   0.000000
    5  C  1  Z    0.000000   0.000000   0.440349   0.000000   0.000000
    6  C  1  S    0.000000   0.000000   0.206840   0.000000   0.000000
    7  C  1  X   -0.082174   0.000000   0.000000   0.000000   0.000000
    8  C  1  Y    0.000000  -0.082174   0.000000   0.000000   0.000000
    9  C  1  Z    0.000000   0.000000   0.124982   0.000000   0.000000
   10  C  1  S    0.000000   0.000000   0.182431   0.000000   0.000000
   11  C  1  X    0.215488   0.000000   0.000000   0.000000   0.000000
   12  C  1  Y    0.000000   0.215488   0.000000   0.000000   0.000000
   13  C  1  Z    0.000000   0.000000   0.402362   0.000000   0.000000
   14  C  1 XX    0.000000   0.000000  -0.670362   0.000000  -0.298715
   15  C  1 YY    0.000000   0.000000  -0.670362   0.000000   0.298715
   16  C  1 ZZ    0.000000   0.000000   1.138393   0.000000   0.000000
   17  C  1 XY    0.000000   0.000000   0.000000  -0.344927   0.000000
   18  C  1 XZ    0.945970   0.000000   0.000000   0.000000   0.000000
   19  C  1 YZ    0.000000   0.945970   0.000000   0.000000   0.000000
   20  N  2  S    0.000000   0.000000   0.038896   0.000000   0.000000
   21  N  2  S    0.000000   0.000000   0.051750   0.000000   0.000000
   22  N  2  X   -0.101765   0.000000   0.000000   0.000000   0.000000
   23  N  2  Y    0.000000  -0.101765   0.000000   0.000000   0.000000
   24  N  2  Z    0.000000   0.000000   0.125192   0.000000   0.000000
   25  N  2  S    0.000000   0.000000  -0.865764   0.000000   0.000000
   26  N  2  X   -0.335580   0.000000   0.000000   0.000000   0.000000
   27  N  2  Y    0.000000  -0.335580   0.000000   0.000000   0.000000
   28  N  2  Z    0.000000   0.000000   0.919472   0.000000   0.000000
   29  N  2  S    0.000000   0.000000   0.279306   0.000000   0.000000
   30  N  2  X   -0.122234   0.000000   0.000000   0.000000   0.000000
   31  N  2  Y    0.000000  -0.122234   0.000000   0.000000   0.000000
   32  N  2  Z    0.000000   0.000000  -0.594634   0.000000   0.000000
   33  N  2 XX    0.000000   0.000000  -0.260370   0.000000   0.859593
   34  N  2 YY    0.000000   0.000000  -0.260370   0.000000  -0.859593
   35  N  2 ZZ    0.000000   0.000000   0.040645   0.000000   0.000000
   36  N  2 XY    0.000000   0.000000   0.000000   0.992573   0.000000
   37  N  2 XZ   -0.219695   0.000000   0.000000   0.000000   0.000000
   38  N  2 YZ    0.000000  -0.219695   0.000000   0.000000   0.000000

                     26         27         28         29         30
                    2.7706     2.7706     2.8243     3.0798     3.0798
                     E          E          A1         E          E   
    1  C  1  S    0.000000   0.000000  -0.142091   0.000000   0.000000
    2  C  1  S    0.000000   0.000000  -0.524959   0.000000   0.000000
    3  C  1  X    0.876744   0.000000   0.000000  -0.988328   0.000000
    4  C  1  Y    0.000000   0.876744   0.000000   0.000000  -0.988328
    5  C  1  Z    0.000000   0.000000  -0.699951   0.000000   0.000000
    6  C  1  S    0.000000   0.000000   1.794379   0.000000   0.000000
    7  C  1  X   -0.665006   0.000000   0.000000   1.366271   0.000000
    8  C  1  Y    0.000000  -0.665006   0.000000   0.000000   1.366271
    9  C  1  Z    0.000000   0.000000   0.714157   0.000000   0.000000
   10  C  1  S    0.000000   0.000000   0.852466   0.000000   0.000000
   11  C  1  X    0.526655   0.000000   0.000000  -0.319675   0.000000
   12  C  1  Y    0.000000   0.526655   0.000000   0.000000  -0.319675
   13  C  1  Z    0.000000   0.000000  -0.269464   0.000000   0.000000
   14  C  1 XX    0.000000   0.000000  -1.192194   0.000000   0.000000
   15  C  1 YY    0.000000   0.000000  -1.192194   0.000000   0.000000
   16  C  1 ZZ    0.000000   0.000000  -1.119534   0.000000   0.000000
   17  C  1 XY    0.000000   0.000000   0.000000   0.000000   0.000000
   18  C  1 XZ    0.559984   0.000000   0.000000   0.568950   0.000000
   19  C  1 YZ    0.000000   0.559984   0.000000   0.000000   0.568950
   20  N  2  S    0.000000   0.000000  -0.001812   0.000000   0.000000
   21  N  2  S    0.000000   0.000000  -0.012503   0.000000   0.000000
   22  N  2  X   -0.036457   0.000000   0.000000  -0.179026   0.000000
   23  N  2  Y    0.000000  -0.036457   0.000000   0.000000  -0.179026
   24  N  2  Z    0.000000   0.000000  -0.019363   0.000000   0.000000
   25  N  2  S    0.000000   0.000000   0.011188   0.000000   0.000000
   26  N  2  X    0.008650   0.000000   0.000000  -0.049825   0.000000
   27  N  2  Y    0.000000   0.008650   0.000000   0.000000  -0.049825
   28  N  2  Z    0.000000   0.000000   0.047589   0.000000   0.000000
   29  N  2  S    0.000000   0.000000   0.098815   0.000000   0.000000
   30  N  2  X   -0.362180   0.000000   0.000000  -0.246596   0.000000
   31  N  2  Y    0.000000  -0.362180   0.000000   0.000000  -0.246596
   32  N  2  Z    0.000000   0.000000  -0.143870   0.000000   0.000000
   33  N  2 XX    0.000000   0.000000  -0.095572   0.000000   0.000000
   34  N  2 YY    0.000000   0.000000  -0.095572   0.000000   0.000000
   35  N  2 ZZ    0.000000   0.000000   0.081860   0.000000   0.000000
   36  N  2 XY    0.000000   0.000000   0.000000   0.000000   0.000000
   37  N  2 XZ    0.819574   0.000000   0.000000   0.847432   0.000000
   38  N  2 YZ    0.000000   0.819574   0.000000   0.000000   0.847432

                     31         32         33         34         35
                    3.1860     3.4381     4.2224     4.2224     4.4239
                     A1         A1         E          E          A1  
    1  C  1  S    0.048815   0.069106   0.000000   0.000000   0.015810
    2  C  1  S    0.126298   0.323795   0.000000   0.000000   0.036532
    3  C  1  X    0.000000   0.000000   0.134707   0.000000   0.000000
    4  C  1  Y    0.000000   0.000000   0.000000   0.134707   0.000000
    5  C  1  Z   -0.126641  -1.141715   0.000000   0.000000  -0.031643
    6  C  1  S   -1.313600  -0.551205   0.000000   0.000000  -0.507291
    7  C  1  X    0.000000   0.000000  -0.343669   0.000000   0.000000
    8  C  1  Y    0.000000   0.000000   0.000000  -0.343669   0.000000
    9  C  1  Z   -1.602710   3.175072   0.000000   0.000000  -0.724985
   10  C  1  S   -1.970037   0.737937   0.000000   0.000000  -1.489736
   11  C  1  X    0.000000   0.000000   0.232789   0.000000   0.000000
   12  C  1  Y    0.000000   0.000000   0.000000   0.232789   0.000000
   13  C  1  Z   -0.825567   0.128914   0.000000   0.000000  -0.756917
   14  C  1 XX    0.361056   0.463041   0.000000   0.000000   0.132957
   15  C  1 YY    0.361056   0.463041   0.000000   0.000000   0.132957
   16  C  1 ZZ   -1.083676   2.552684   0.000000   0.000000  -0.442313
   17  C  1 XY    0.000000   0.000000   0.000000   0.000000   0.000000
   18  C  1 XZ    0.000000   0.000000  -0.269114   0.000000   0.000000
   19  C  1 YZ    0.000000   0.000000   0.000000  -0.269114   0.000000
   20  N  2  S   -0.021800   0.024290   0.000000   0.000000  -0.137888
   21  N  2  S   -0.041290   0.023087   0.000000   0.000000  -0.495532
   22  N  2  X    0.000000   0.000000  -1.294451   0.000000   0.000000
   23  N  2  Y    0.000000   0.000000   0.000000  -1.294451   0.000000
   24  N  2  Z   -0.461155   0.004764   0.000000   0.000000   0.815602
   25  N  2  S    0.290909  -1.046505   0.000000   0.000000   1.763399
   26  N  2  X    0.000000   0.000000   1.533551   0.000000   0.000000
   27  N  2  Y    0.000000   0.000000   0.000000   1.533551   0.000000
   28  N  2  Z   -0.646363   1.793903   0.000000   0.000000  -1.337980
   29  N  2  S    2.984853  -1.644754   0.000000   0.000000   2.819182
   30  N  2  X    0.000000   0.000000  -0.598630   0.000000   0.000000
   31  N  2  Y    0.000000   0.000000   0.000000  -0.598630   0.000000
   32  N  2  Z   -1.535702   0.815925   0.000000   0.000000  -0.546119
   33  N  2 XX   -0.638999  -0.031479   0.000000   0.000000  -1.280220
   34  N  2 YY   -0.638999  -0.031479   0.000000   0.000000  -1.280220
   35  N  2 ZZ    1.438880  -0.780443   0.000000   0.000000  -0.603400
   36  N  2 XY    0.000000   0.000000   0.000000   0.000000   0.000000
   37  N  2 XZ    0.000000   0.000000  -0.203308   0.000000   0.000000
   38  N  2 YZ    0.000000   0.000000   0.000000  -0.203308   0.000000

                     36         37         38
                    5.5603    27.2258    40.7725
                     A1         A1         A1  
    1  C  1  S   -0.024162  -2.105453  -0.001268
    2  C  1  S   -0.052623   2.529515   0.004527
    3  C  1  X    0.000000   0.000000   0.000000
    4  C  1  Y    0.000000   0.000000   0.000000
    5  C  1  Z    0.069308  -0.030569  -0.006189
    6  C  1  S    1.145298  -1.144315  -0.109382
    7  C  1  X    0.000000   0.000000   0.000000
    8  C  1  Y    0.000000   0.000000   0.000000
    9  C  1  Z    2.447569   0.052089  -0.277433
   10  C  1  S   -0.194257  -0.234939   0.379560
   11  C  1  X    0.000000   0.000000   0.000000
   12  C  1  Y    0.000000   0.000000   0.000000
   13  C  1  Z   -0.208291   0.011687   0.216675
   14  C  1 XX   -0.221164   0.535444   0.016706
   15  C  1 YY   -0.221164   0.535444   0.016706
   16  C  1 ZZ    1.820966   0.565854  -0.215060
   17  C  1 XY    0.000000   0.000000   0.000000
   18  C  1 XZ    0.000000   0.000000   0.000000
   19  C  1 YZ    0.000000   0.000000   0.000000
   20  N  2  S   -0.107904  -0.001217  -2.223818
   21  N  2  S   -0.448247   0.004307   2.632555
   22  N  2  X    0.000000   0.000000   0.000000
   23  N  2  Y    0.000000   0.000000   0.000000
   24  N  2  Z   -1.079996   0.026457   0.062280
   25  N  2  S    0.745666  -0.071354  -0.964395
   26  N  2  X    0.000000   0.000000   0.000000
   27  N  2  Y    0.000000   0.000000   0.000000
   28  N  2  Z    3.099806  -0.004893  -0.308004
   29  N  2  S    0.290599  -0.038061  -0.693747
   30  N  2  X    0.000000   0.000000   0.000000
   31  N  2  Y    0.000000   0.000000   0.000000
   32  N  2  Z   -0.220048   0.073280   0.184455
   33  N  2 XX   -0.882838  -0.008353   0.572852
   34  N  2 YY   -0.882838  -0.008353   0.572852
   35  N  2 ZZ   -2.490957   0.053606   0.719915
   36  N  2 XY    0.000000   0.000000   0.000000
   37  N  2 XZ    0.000000   0.000000   0.000000
   38  N  2 YZ    0.000000   0.000000   0.000000
 ...... END OF ROHF CALCULATION ......
 CPU     0: STEP CPU TIME=     0.03 TOTAL CPU TIME=          0.1 (      0.0 MIN)
 TOTAL WALL CLOCK TIME=          0.1 SECONDS, CPU UTILIZATION IS    99.21%

     ----------------------------------------------------------------
     PROPERTY VALUES FOR THE ROHF  SELF-CONSISTENT FIELD WAVEFUNCTION
     ----------------------------------------------------------------

          -----------------
          ENERGY COMPONENTS
          -----------------

         WAVEFUNCTION NORMALIZATION =       1.0000000000

                ONE ELECTRON ENERGY =    -161.9284819952
                TWO ELECTRON ENERGY =      50.7535032994
           NUCLEAR REPULSION ENERGY =      18.9669264961
                                      ------------------
                       TOTAL ENERGY =     -92.2080521998

 ELECTRON-ELECTRON POTENTIAL ENERGY =      50.7535032994
  NUCLEUS-ELECTRON POTENTIAL ENERGY =    -253.9127658151
   NUCLEUS-NUCLEUS POTENTIAL ENERGY =      18.9669264961
                                      ------------------
             TOTAL POTENTIAL ENERGY =    -184.1923360197
               TOTAL KINETIC ENERGY =      91.9842838199
                 VIRIAL RATIO (V/T) =       2.0024326806

  ...... PI ENERGY ANALYSIS ......

 ENERGY ANALYSIS:
            FOCK ENERGY=    -60.4214762749
          BARE H ENERGY=   -161.9284819952
     ELECTRONIC ENERGY =   -111.1749791351
         KINETIC ENERGY=     91.9842838199
          N-N REPULSION=     18.9669264961
           TOTAL ENERGY=    -92.2080526390
        SIGMA PART(1+2)=    -96.2811376520
               (K,V1,2)=     86.4862985489   -220.6700776977     37.9026414968
           PI PART(1+2)=    -14.8938414831
               (K,V1,2)=      5.4979852710    -33.2426881174     12.8508613634
  SIGMA SKELETON, ERROR=    -77.3142111559     -0.0000000000
             MIXED PART= 0.00000E+00 0.00000E+00 0.00000E+00 0.00000E+00
 ...... END OF PI ENERGY ANALYSIS ......

          ---------------------------------------
          MULLIKEN AND LOWDIN POPULATION ANALYSES
          ---------------------------------------

     ATOMIC MULLIKEN POPULATION IN EACH MOLECULAR ORBITAL

                      1          2          3          4          5

                  2.000000   2.000000   2.000000   2.000000   2.000000

    1             0.000363   2.000005   0.658776   0.336015   0.916452
    2             1.999637  -0.000005   1.341224   1.663985   1.083548

                      6          7

                  2.000000   1.000000

    1             0.916452   0.913994
    2             1.083548   0.086006

     ATOMIC SPIN POPULATION (ALPHA MINUS BETA)
       ATOM         MULL.POP.                    LOW.POP.
    1 C             0.913994                     0.886589
    2 N             0.086006                     0.113411

               ----- POPULATIONS IN EACH AO -----
                             MULLIKEN      LOWDIN
              1  C  1  S      1.10424     1.04835
              2  C  1  S      0.88912     0.91102
              3  C  1  X      0.16439     0.16530
              4  C  1  Y      0.16439     0.16530
              5  C  1  Z      0.21537     0.21463
              6  C  1  S      0.80166     0.46305
              7  C  1  X      0.42551     0.40377
              8  C  1  Y      0.42551     0.40377
              9  C  1  Z      0.39874     0.41041
             10  C  1  S      0.38125     0.32279
             11  C  1  X      0.30166     0.32609
             12  C  1  Y      0.30166     0.32609
             13  C  1  Z      0.10003     0.24940
             14  C  1 XX     -0.00998     0.12583
             15  C  1 YY     -0.00998     0.12583
             16  C  1 ZZ      0.03871     0.22464
             17  C  1 XY      0.00000     0.00000
             18  C  1 XZ      0.02489     0.03523
             19  C  1 YZ      0.02489     0.03523
             20  N  2  S      1.09546     1.04146
             21  N  2  S      0.89902     0.92196
             22  N  2  X      0.19281     0.19332
             23  N  2  Y      0.19281     0.19332
             24  N  2  Z      0.28133     0.27815
             25  N  2  S      0.95599     0.55011
             26  N  2  X      0.47625     0.44695
             27  N  2  Y      0.47625     0.44695
             28  N  2  Z      0.63500     0.61785
             29  N  2  S      0.84300     0.45552
             30  N  2  X      0.40046     0.41333
             31  N  2  Y      0.40046     0.41333
             32  N  2  Z      0.36070     0.44751
             33  N  2 XX     -0.00549     0.18495
             34  N  2 YY     -0.00549     0.18495
             35  N  2 ZZ      0.03132     0.22158
             36  N  2 XY      0.00000     0.00000
             37  N  2 XZ      0.01403     0.01602
             38  N  2 YZ      0.01403     0.01602

          ----- MULLIKEN ATOMIC OVERLAP POPULATIONS -----
          (OFF-DIAGONAL ELEMENTS NEED TO BE MULTIPLIED BY 2)

             1           2

    1    4.9106734
    2    0.8313840   6.4265585

          TOTAL MULLIKEN AND LOWDIN ATOMIC POPULATIONS
       ATOM         MULL.POP.    CHARGE          LOW.POP.     CHARGE
    1 C             5.742057    0.257943         5.956743    0.043257
    2 N             7.257943   -0.257943         7.043257   -0.043257

          -------------------------------
          BOND ORDER AND VALENCE ANALYSIS     BOND ORDER THRESHOLD=0.050
          -------------------------------

                   BOND                       BOND                       BOND
  ATOM PAIR DIST  ORDER      ATOM PAIR DIST  ORDER      ATOM PAIR DIST  ORDER
    1   2  1.172  2.982

                       TOTAL       BONDED        FREE
      ATOM            VALENCE     VALENCE     VALENCE
    1 C                 3.817       2.982       0.835
    2 N                 2.989       2.982       0.007

          -----------------------------------------
          ATOMIC SPIN DENSITY AT THE NUCLEUS (A.U.)
          -----------------------------------------
                            SPIN DENS    ALPHA DENS     BETA DENS
    1  C            6.0     0.8317037      60.40664      59.57494
    2  N            7.0     0.0342612      97.57413      97.53987

          ---------------------
          ELECTROSTATIC MOMENTS
          ---------------------

 POINT   1           X           Y           Z (BOHR)    CHARGE
                 0.000000    0.000000    1.192480        0.00 (A.U.)
         DX          DY          DZ         /D/  (DEBYE)
     0.000000    0.000000   -2.258720    2.258720
 ...... END OF PROPERTY EVALUATION ......
 CPU     0: STEP CPU TIME=     0.00 TOTAL CPU TIME=          0.1 (      0.0 MIN)
 TOTAL WALL CLOCK TIME=          0.1 SECONDS, CPU UTILIZATION IS    90.58%

 BEGINNING ONE ELECTRON GRADIENT...
 ..... END OF 1-ELECTRON GRADIENT ......
 CPU     0: STEP CPU TIME=     0.00 TOTAL CPU TIME=          0.1 (      0.0 MIN)
 TOTAL WALL CLOCK TIME=          0.1 SECONDS, CPU UTILIZATION IS    88.03%

          ----------------------
          GRADIENT OF THE ENERGY
          ----------------------

 THE MINIMUM MEMORY REQUIRED FOR THIS RUN IS      74138 WORDS.
 USING     988688 WORDS FOR 2E- DERIVATIVE INTEGRAL CONTRIBUTIONS.
 THE COARSE/FINE SCHWARZ SCREENINGS SKIPPED            0/           0 BLOCKS.
 THE NUMBER OF GRADIENT INTEGRAL BLOCKS COMPUTED WAS      1300
 ...... END OF 2-ELECTRON GRADIENT ......
 CPU     0: STEP CPU TIME=     0.02 TOTAL CPU TIME=          0.1 (      0.0 MIN)
 TOTAL WALL CLOCK TIME=          0.1 SECONDS, CPU UTILIZATION IS    84.92%

          NSERCH=  0     ENERGY=     -92.2080522

                                 -----------------------
                                 GRADIENT (HARTREE/BOHR)
                                 -----------------------
        ATOM     ZNUC       DE/DX         DE/DY         DE/DZ
 --------------------------------------------------------------
    1  C            6.0     0.0000000     0.0000000    -0.1005182
    2  N            7.0     0.0000000     0.0000000     0.1005182

          MAXIMUM GRADIENT = 0.1005182    RMS GRADIENT = 0.0580342

 NSERCH:   0  E=      -92.2080521998  GRAD. MAX=  0.1005182  R.M.S.=  0.0580342

          FORCE CONSTANT MATRIX NOT UPDATED --- TAKING FIRST STEP
          MIN SEARCH, CORRECT HESSIAN, TRYING PURE NR STEP
               NR STEP HAS LENGTH         =   0.110547
          RADIUS OF STEP TAKEN=   0.11055  CURRENT TRUST RADIUS=   0.30000

 BEGINNING GEOMETRY SEARCH POINT NSERCH=   1 ...

 COORDINATES OF SYMMETRY UNIQUE ATOMS (ANGS)
   ATOM   CHARGE       X              Y              Z
 ------------------------------------------------------------
 C           6.0   0.0000000000   0.0000000000   0.0413649007
 N           7.0   0.0000000000   0.0000000000   1.1304350993
 COORDINATES OF ALL ATOMS ARE (ANGS)
   ATOM   CHARGE       X              Y              Z
 ------------------------------------------------------------
 C           6.0   0.0000000000   0.0000000000   0.0413649007
 N           7.0   0.0000000000   0.0000000000   1.1304350993

          INTERNUCLEAR DISTANCES (ANGS.)
          ------------------------------

                1 C          2 N     

   1 C       0.0000000    1.0890702 *
   2 N       1.0890702 *  0.0000000  

  * ... LESS THAN  3.000

 ...... END OF ONE-ELECTRON INTEGRALS ......
 CPU     0: STEP CPU TIME=     0.00 TOTAL CPU TIME=          0.1 (      0.0 MIN)
 TOTAL WALL CLOCK TIME=          0.1 SECONDS, CPU UTILIZATION IS    78.13%
 TOTAL NUMBER OF NONZERO TWO-ELECTRON INTEGRALS =               72578
          6 INTEGRAL RECORDS WERE STORED ON DISK FILE  8.
  ...... END OF TWO-ELECTRON INTEGRALS .....
 CPU     0: STEP CPU TIME=     0.02 TOTAL CPU TIME=          0.1 (      0.0 MIN)
 TOTAL WALL CLOCK TIME=          0.1 SECONDS, CPU UTILIZATION IS    82.96%

          ---------------------------
                 ROHF SCF CALCULATION
          ---------------------------
     DENSITY MATRIX CONV=  2.00E-04

 ITER EX      TOTAL ENERGY        E CHANGE  DENSITY CHANGE    DIIS ERROR
          * * *   INITIATING DIIS PROCEDURE   * * *
   1  0      -92.2009257808   -92.2009257808   0.044201689   0.066246946
   2  1      -92.2061245534    -0.0051987726   0.025805037   0.025202088
   3  2      -92.2067744956    -0.0006499422   0.015085816   0.015936421
   4  3      -92.2071052828    -0.0003307871   0.004297829   0.006308063
   5  4      -92.2071524020    -0.0000471192   0.001964170   0.001100527
   6  5      -92.2071548757    -0.0000024738   0.000291004   0.000160063
   7  6      -92.2071549337    -0.0000000579   0.000018148   0.000011772
   8  7      -92.2071549344    -0.0000000008   0.000003177   0.000000750

          -----------------
          DENSITY CONVERGED
          -----------------
     TIME TO FORM FOCK OPERATORS=       0.0 SECONDS (       0.0 SEC/ITER)
     TIME TO SOLVE SCF EQUATIONS=       0.0 SECONDS (       0.0 SEC/ITER)

 FINAL ROHF ENERGY IS      -92.2071549344 AFTER   8 ITERATIONS

          --------------------
          SPIN SZ   =    0.500
          S-SQUARED =    0.750
          --------------------

 LZ VALUE ANALYSIS FOR THE MOS
 ----------------------------------------
 MO     1 (    1) HAS LZ(WEIGHT)= 0.00(100.0%) 
 MO     2 (    2) HAS LZ(WEIGHT)= 0.00(100.0%) 
 MO     3 (    3) HAS LZ(WEIGHT)= 0.00(100.0%) 
 MO     4 (    4) HAS LZ(WEIGHT)= 0.00(100.0%) 
 MO     5 (    5) HAS LZ(WEIGHT)=-1.00( 50.0%)  1.00( 50.0%) 
 MO     6 (    5) HAS LZ(WEIGHT)=-1.00( 50.0%)  1.00( 50.0%) 
 MO     7 (    6) HAS LZ(WEIGHT)= 0.00(100.0%) 
 MO     8 (    7) HAS LZ(WEIGHT)=-1.00( 50.0%)  1.00( 50.0%) 
 MO     9 (    7) HAS LZ(WEIGHT)=-1.00( 50.0%)  1.00( 50.0%) 
 MO    10 (    8) HAS LZ(WEIGHT)= 0.00(100.0%) 
 MO    11 (    9) HAS LZ(WEIGHT)= 0.00(100.0%) 
 MO    12 (   10) HAS LZ(WEIGHT)=-1.00( 50.0%)  1.00( 50.0%) 
 MO    13 (   10) HAS LZ(WEIGHT)=-1.00( 50.0%)  1.00( 50.0%) 
 MO    14 (   11) HAS LZ(WEIGHT)= 0.00(100.0%) 
 MO    15 (   12) HAS LZ(WEIGHT)=-1.00( 50.0%)  1.00( 50.0%) 
 MO    16 (   12) HAS LZ(WEIGHT)=-1.00( 50.0%)  1.00( 50.0%) 
 MO    17 (   13) HAS LZ(WEIGHT)= 0.00(100.0%) 
 MO    18 (   14) HAS LZ(WEIGHT)= 0.00(100.0%) 
 MO    19 (   15) HAS LZ(WEIGHT)=-2.00( 50.0%)  2.00( 50.0%) 
 MO    20 (   15) HAS LZ(WEIGHT)=-2.00( 50.0%)  2.00( 50.0%) 
 MO    21 (   16) HAS LZ(WEIGHT)=-1.00( 50.0%)  1.00( 50.0%) 
 MO    22 (   16) HAS LZ(WEIGHT)=-1.00( 50.0%)  1.00( 50.0%) 
 MO    23 (   17) HAS LZ(WEIGHT)= 0.00(100.0%) 
 MO    24 (   18) HAS LZ(WEIGHT)=-2.00( 50.0%)  2.00( 50.0%) 
 MO    25 (   18) HAS LZ(WEIGHT)=-2.00( 50.0%)  2.00( 50.0%) 
 MO    26 (   19) HAS LZ(WEIGHT)= 0.00(100.0%) 
 MO    27 (   20) HAS LZ(WEIGHT)=-1.00( 50.0%)  1.00( 50.0%) 
 MO    28 (   20) HAS LZ(WEIGHT)=-1.00( 50.0%)  1.00( 50.0%) 
 MO    29 (   21) HAS LZ(WEIGHT)=-1.00( 50.0%)  1.00( 50.0%) 
 MO    30 (   21) HAS LZ(WEIGHT)=-1.00( 50.0%)  1.00( 50.0%) 
 MO    31 (   22) HAS LZ(WEIGHT)= 0.00(100.0%) 
 MO    32 (   23) HAS LZ(WEIGHT)= 0.00(100.0%) 
 MO    33 (   24) HAS LZ(WEIGHT)=-1.00( 50.0%)  1.00( 50.0%) 
 MO    34 (   24) HAS LZ(WEIGHT)=-1.00( 50.0%)  1.00( 50.0%) 
 MO    35 (   25) HAS LZ(WEIGHT)= 0.00(100.0%) 
 MO    36 (   26) HAS LZ(WEIGHT)= 0.00(100.0%) 
 MO    37 (   27) HAS LZ(WEIGHT)= 0.00(100.0%) 
 MO    38 (   28) HAS LZ(WEIGHT)= 0.00(100.0%) 
 ...... END OF ROHF CALCULATION ......
 CPU     0: STEP CPU TIME=     0.02 TOTAL CPU TIME=          0.1 (      0.0 MIN)
 TOTAL WALL CLOCK TIME=          0.1 SECONDS, CPU UTILIZATION IS    82.86%
 ..... END OF 1-ELECTRON GRADIENT ......
 CPU     0: STEP CPU TIME=     0.02 TOTAL CPU TIME=          0.1 (      0.0 MIN)
 TOTAL WALL CLOCK TIME=          0.1 SECONDS, CPU UTILIZATION IS    93.28%
 ...... END OF 2-ELECTRON GRADIENT ......
 CPU     0: STEP CPU TIME=     0.02 TOTAL CPU TIME=          0.1 (      0.0 MIN)
 TOTAL WALL CLOCK TIME=          0.1 SECONDS, CPU UTILIZATION IS    94.38%

          NSERCH=  1     ENERGY=     -92.2071549

                                 -----------------------
                                 GRADIENT (HARTREE/BOHR)
                                 -----------------------
        ATOM     ZNUC       DE/DX         DE/DY         DE/DZ
 --------------------------------------------------------------
    1  C            6.0     0.0000000     0.0000000     0.1325966
    2  N            7.0     0.0000000     0.0000000    -0.1325966

          MAXIMUM GRADIENT = 0.1325966    RMS GRADIENT = 0.0765547

 NSERCH:   1  E=      -92.2071549344  GRAD. MAX=  0.1325966  R.M.S.=  0.0765547

          HESSIAN UPDATED USING THE BFGS FORMULA
             ACTUAL ENERGY CHANGE WAS   0.0008972654
          PREDICTED ENERGY CHANGE WAS  -0.0078573413 RATIO= -0.114
          MIN SEARCH, CORRECT HESSIAN, TRYING PURE NR STEP
               NR STEP HAS LENGTH         =   0.062879
          TRIM/QA LAMBDA FOR NON-TS MODES =  -0.41037612
          TRIM/QA STEP HAS LENGTH         =   0.055273
          RADIUS OF STEP TAKEN=   0.05527  CURRENT TRUST RADIUS=   0.05527

 BEGINNING GEOMETRY SEARCH POINT NSERCH=   2 ...

 COORDINATES OF SYMMETRY UNIQUE ATOMS (ANGS)
   ATOM   CHARGE       X              Y              Z
 ------------------------------------------------------------
 C           6.0   0.0000000000   0.0000000000   0.0206824504
 N           7.0   0.0000000000   0.0000000000   1.1511175496
 COORDINATES OF ALL ATOMS ARE (ANGS)
   ATOM   CHARGE       X              Y              Z
 ------------------------------------------------------------
 C           6.0   0.0000000000   0.0000000000   0.0206824504
 N           7.0   0.0000000000   0.0000000000   1.1511175496

          INTERNUCLEAR DISTANCES (ANGS.)
          ------------------------------

                1 C          2 N     

   1 C       0.0000000    1.1304351 *
   2 N       1.1304351 *  0.0000000  

  * ... LESS THAN  3.000

 ...... END OF ONE-ELECTRON INTEGRALS ......
 CPU     0: STEP CPU TIME=     0.00 TOTAL CPU TIME=          0.1 (      0.0 MIN)
 TOTAL WALL CLOCK TIME=          0.1 SECONDS, CPU UTILIZATION IS    93.75%
 TOTAL NUMBER OF NONZERO TWO-ELECTRON INTEGRALS =               72577
          6 INTEGRAL RECORDS WERE STORED ON DISK FILE  8.
  ...... END OF TWO-ELECTRON INTEGRALS .....
 CPU     0: STEP CPU TIME=     0.00 TOTAL CPU TIME=          0.1 (      0.0 MIN)
 TOTAL WALL CLOCK TIME=          0.2 SECONDS, CPU UTILIZATION IS    90.14%

          ---------------------------
                 ROHF SCF CALCULATION
          ---------------------------
     DENSITY MATRIX CONV=  2.00E-04

 ITER EX      TOTAL ENERGY        E CHANGE  DENSITY CHANGE    DIIS ERROR
          * * *   INITIATING DIIS PROCEDURE   * * *
   1  0      -92.2104450277   -92.2104450277   0.022061795   0.035248436
   2  1      -92.2117930313    -0.0013480036   0.014062647   0.015997567
   3  2      -92.2119794719    -0.0001864406   0.009181529   0.010639249
   4  3      -92.2121238919    -0.0001444200   0.002082342   0.003132086
   5  4      -92.2121366311    -0.0000127391   0.001078299   0.000641757
   6  5      -92.2121375388    -0.0000009078   0.000185098   0.000082302
   7  6      -92.2121375677    -0.0000000288   0.000011162   0.000006929
   8  7      -92.2121375680    -0.0000000003   0.000001020   0.000001603

          -----------------
          DENSITY CONVERGED
          -----------------
     TIME TO FORM FOCK OPERATORS=       0.0 SECONDS (       0.0 SEC/ITER)
     TIME TO SOLVE SCF EQUATIONS=       0.0 SECONDS (       0.0 SEC/ITER)

 FINAL ROHF ENERGY IS      -92.2121375680 AFTER   8 ITERATIONS

          --------------------
          SPIN SZ   =    0.500
          S-SQUARED =    0.750
          --------------------

 LZ VALUE ANALYSIS FOR THE MOS
 ----------------------------------------
 MO     1 (    1) HAS LZ(WEIGHT)= 0.00(100.0%) 
 MO     2 (    2) HAS LZ(WEIGHT)= 0.00(100.0%) 
 MO     3 (    3) HAS LZ(WEIGHT)= 0.00(100.0%) 
 MO     4 (    4) HAS LZ(WEIGHT)= 0.00(100.0%) 
 MO     5 (    5) HAS LZ(WEIGHT)=-1.00( 50.0%)  1.00( 50.0%) 
 MO     6 (    5) HAS LZ(WEIGHT)=-1.00( 50.0%)  1.00( 50.0%) 
 MO     7 (    6) HAS LZ(WEIGHT)= 0.00(100.0%) 
 MO     8 (    7) HAS LZ(WEIGHT)=-1.00( 50.0%)  1.00( 50.0%) 
 MO     9 (    7) HAS LZ(WEIGHT)=-1.00( 50.0%)  1.00( 50.0%) 
 MO    10 (    8) HAS LZ(WEIGHT)= 0.00(100.0%) 
 MO    11 (    9) HAS LZ(WEIGHT)= 0.00(100.0%) 
 MO    12 (   10) HAS LZ(WEIGHT)=-1.00( 50.0%)  1.00( 50.0%) 
 MO    13 (   10) HAS LZ(WEIGHT)=-1.00( 50.0%)  1.00( 50.0%) 
 MO    14 (   11) HAS LZ(WEIGHT)= 0.00(100.0%) 
 MO    15 (   12) HAS LZ(WEIGHT)=-1.00( 50.0%)  1.00( 50.0%) 
 MO    16 (   12) HAS LZ(WEIGHT)=-1.00( 50.0%)  1.00( 50.0%) 
 MO    17 (   13) HAS LZ(WEIGHT)= 0.00(100.0%) 
 MO    18 (   14) HAS LZ(WEIGHT)= 0.00(100.0%) 
 MO    19 (   15) HAS LZ(WEIGHT)=-2.00( 50.0%)  2.00( 50.0%) 
 MO    20 (   15) HAS LZ(WEIGHT)=-2.00( 50.0%)  2.00( 50.0%) 
 MO    21 (   16) HAS LZ(WEIGHT)=-1.00( 50.0%)  1.00( 50.0%) 
 MO    22 (   16) HAS LZ(WEIGHT)=-1.00( 50.0%)  1.00( 50.0%) 
 MO    23 (   17) HAS LZ(WEIGHT)= 0.00(100.0%) 
 MO    24 (   18) HAS LZ(WEIGHT)=-2.00( 50.0%)  2.00( 50.0%) 
 MO    25 (   18) HAS LZ(WEIGHT)=-2.00( 50.0%)  2.00( 50.0%) 
 MO    26 (   19) HAS LZ(WEIGHT)=-1.00( 50.0%)  1.00( 50.0%) 
 MO    27 (   19) HAS LZ(WEIGHT)=-1.00( 50.0%)  1.00( 50.0%) 
 MO    28 (   20) HAS LZ(WEIGHT)= 0.00(100.0%) 
 MO    29 (   21) HAS LZ(WEIGHT)=-1.00( 50.0%)  1.00( 50.0%) 
 MO    30 (   21) HAS LZ(WEIGHT)=-1.00( 50.0%)  1.00( 50.0%) 
 MO    31 (   22) HAS LZ(WEIGHT)= 0.00(100.0%) 
 MO    32 (   23) HAS LZ(WEIGHT)= 0.00(100.0%) 
 MO    33 (   24) HAS LZ(WEIGHT)=-1.00( 50.0%)  1.00( 50.0%) 
 MO    34 (   24) HAS LZ(WEIGHT)=-1.00( 50.0%)  1.00( 50.0%) 
 MO    35 (   25) HAS LZ(WEIGHT)= 0.00(100.0%) 
 MO    36 (   26) HAS LZ(WEIGHT)= 0.00(100.0%) 
 MO    37 (   27) HAS LZ(WEIGHT)= 0.00(100.0%) 
 MO    38 (   28) HAS LZ(WEIGHT)= 0.00(100.0%) 
 ...... END OF ROHF CALCULATION ......
 CPU     0: STEP CPU TIME=     0.02 TOTAL CPU TIME=          0.2 (      0.0 MIN)
 TOTAL WALL CLOCK TIME=          0.2 SECONDS, CPU UTILIZATION IS    91.37%
 ..... END OF 1-ELECTRON GRADIENT ......
 CPU     0: STEP CPU TIME=     0.00 TOTAL CPU TIME=          0.2 (      0.0 MIN)
 TOTAL WALL CLOCK TIME=          0.2 SECONDS, CPU UTILIZATION IS    90.32%
 ...... END OF 2-ELECTRON GRADIENT ......
 CPU     0: STEP CPU TIME=     0.02 TOTAL CPU TIME=          0.2 (      0.0 MIN)
 TOTAL WALL CLOCK TIME=          0.2 SECONDS, CPU UTILIZATION IS    91.91%

          NSERCH=  2     ENERGY=     -92.2121376

                                 -----------------------
                                 GRADIENT (HARTREE/BOHR)
                                 -----------------------
        ATOM     ZNUC       DE/DX         DE/DY         DE/DZ
 --------------------------------------------------------------
    1  C            6.0     0.0000000     0.0000000     0.0006035
    2  N            7.0     0.0000000     0.0000000    -0.0006035

          MAXIMUM GRADIENT = 0.0006035    RMS GRADIENT = 0.0003484

 NSERCH:   2  E=      -92.2121375680  GRAD. MAX=  0.0006035  R.M.S.=  0.0003484

          HESSIAN UPDATED USING THE BFGS FORMULA
             ACTUAL ENERGY CHANGE WAS  -0.0049826336
          PREDICTED ENERGY CHANGE WAS  -0.0058093077 RATIO=  0.858
          MIN SEARCH, CORRECT HESSIAN, TRYING PURE NR STEP
               NR STEP HAS LENGTH         =   0.000253
          RADIUS OF STEP TAKEN=   0.00025  CURRENT TRUST RADIUS=   0.07817

 BEGINNING GEOMETRY SEARCH POINT NSERCH=   3 ...

 COORDINATES OF SYMMETRY UNIQUE ATOMS (ANGS)
   ATOM   CHARGE       X              Y              Z
 ------------------------------------------------------------
 C           6.0   0.0000000000   0.0000000000   0.0205878906
 N           7.0   0.0000000000   0.0000000000   1.1512121094
 COORDINATES OF ALL ATOMS ARE (ANGS)
   ATOM   CHARGE       X              Y              Z
 ------------------------------------------------------------
 C           6.0   0.0000000000   0.0000000000   0.0205878906
 N           7.0   0.0000000000   0.0000000000   1.1512121094

          INTERNUCLEAR DISTANCES (ANGS.)
          ------------------------------

                1 C          2 N     

   1 C       0.0000000    1.1306242 *
   2 N       1.1306242 *  0.0000000  

  * ... LESS THAN  3.000

 ...... END OF ONE-ELECTRON INTEGRALS ......
 CPU     0: STEP CPU TIME=     0.00 TOTAL CPU TIME=          0.2 (      0.0 MIN)
 TOTAL WALL CLOCK TIME=          0.2 SECONDS, CPU UTILIZATION IS    91.42%
 TOTAL NUMBER OF NONZERO TWO-ELECTRON INTEGRALS =               72577
          6 INTEGRAL RECORDS WERE STORED ON DISK FILE  8.
  ...... END OF TWO-ELECTRON INTEGRALS .....
 CPU     0: STEP CPU TIME=     0.02 TOTAL CPU TIME=          0.2 (      0.0 MIN)
 TOTAL WALL CLOCK TIME=          0.2 SECONDS, CPU UTILIZATION IS    96.15%

          ---------------------------
                 ROHF SCF CALCULATION
          ---------------------------
     DENSITY MATRIX CONV=  1.00E-05

 ITER EX      TOTAL ENERGY        E CHANGE  DENSITY CHANGE    DIIS ERROR
          * * *   INITIATING DIIS PROCEDURE   * * *
   1  0      -92.2121376564   -92.2121376564   0.000097483   0.000154581
   2  1      -92.2121376832    -0.0000000268   0.000061130   0.000064916
   3  2      -92.2121376866    -0.0000000033   0.000038781   0.000043949
   4  3      -92.2121376891    -0.0000000025   0.000009828   0.000015112
   5  4      -92.2121376893    -0.0000000003   0.000004985   0.000002790

          -----------------
          DENSITY CONVERGED
          -----------------
     TIME TO FORM FOCK OPERATORS=       0.0 SECONDS (       0.0 SEC/ITER)
     TIME TO SOLVE SCF EQUATIONS=       0.0 SECONDS (       0.0 SEC/ITER)

 FINAL ROHF ENERGY IS      -92.2121376893 AFTER   5 ITERATIONS

          --------------------
          SPIN SZ   =    0.500
          S-SQUARED =    0.750
          --------------------

 LZ VALUE ANALYSIS FOR THE MOS
 ----------------------------------------
 MO     1 (    1) HAS LZ(WEIGHT)= 0.00(100.0%) 
 MO     2 (    2) HAS LZ(WEIGHT)= 0.00(100.0%) 
 MO     3 (    3) HAS LZ(WEIGHT)= 0.00(100.0%) 
 MO     4 (    4) HAS LZ(WEIGHT)= 0.00(100.0%) 
 MO     5 (    5) HAS LZ(WEIGHT)=-1.00( 50.0%)  1.00( 50.0%) 
 MO     6 (    5) HAS LZ(WEIGHT)=-1.00( 50.0%)  1.00( 50.0%) 
 MO     7 (    6) HAS LZ(WEIGHT)= 0.00(100.0%) 
 MO     8 (    7) HAS LZ(WEIGHT)=-1.00( 50.0%)  1.00( 50.0%) 
 MO     9 (    7) HAS LZ(WEIGHT)=-1.00( 50.0%)  1.00( 50.0%) 
 MO    10 (    8) HAS LZ(WEIGHT)= 0.00(100.0%) 
 MO    11 (    9) HAS LZ(WEIGHT)= 0.00(100.0%) 
 MO    12 (   10) HAS LZ(WEIGHT)=-1.00( 50.0%)  1.00( 50.0%) 
 MO    13 (   10) HAS LZ(WEIGHT)=-1.00( 50.0%)  1.00( 50.0%) 
 MO    14 (   11) HAS LZ(WEIGHT)= 0.00(100.0%) 
 MO    15 (   12) HAS LZ(WEIGHT)=-1.00( 50.0%)  1.00( 50.0%) 
 MO    16 (   12) HAS LZ(WEIGHT)=-1.00( 50.0%)  1.00( 50.0%) 
 MO    17 (   13) HAS LZ(WEIGHT)= 0.00(100.0%) 
 MO    18 (   14) HAS LZ(WEIGHT)= 0.00(100.0%) 
 MO    19 (   15) HAS LZ(WEIGHT)=-2.00( 50.0%)  2.00( 50.0%) 
 MO    20 (   15) HAS LZ(WEIGHT)=-2.00( 50.0%)  2.00( 50.0%) 
 MO    21 (   16) HAS LZ(WEIGHT)=-1.00( 50.0%)  1.00( 50.0%) 
 MO    22 (   16) HAS LZ(WEIGHT)=-1.00( 50.0%)  1.00( 50.0%) 
 MO    23 (   17) HAS LZ(WEIGHT)= 0.00(100.0%) 
 MO    24 (   18) HAS LZ(WEIGHT)=-2.00( 50.0%)  2.00( 50.0%) 
 MO    25 (   18) HAS LZ(WEIGHT)=-2.00( 50.0%)  2.00( 50.0%) 
 MO    26 (   19) HAS LZ(WEIGHT)=-1.00( 50.0%)  1.00( 50.0%) 
 MO    27 (   19) HAS LZ(WEIGHT)=-1.00( 50.0%)  1.00( 50.0%) 
 MO    28 (   20) HAS LZ(WEIGHT)= 0.00(100.0%) 
 MO    29 (   21) HAS LZ(WEIGHT)=-1.00( 50.0%)  1.00( 50.0%) 
 MO    30 (   21) HAS LZ(WEIGHT)=-1.00( 50.0%)  1.00( 50.0%) 
 MO    31 (   22) HAS LZ(WEIGHT)= 0.00(100.0%) 
 MO    32 (   23) HAS LZ(WEIGHT)= 0.00(100.0%) 
 MO    33 (   24) HAS LZ(WEIGHT)=-1.00( 50.0%)  1.00( 50.0%) 
 MO    34 (   24) HAS LZ(WEIGHT)=-1.00( 50.0%)  1.00( 50.0%) 
 MO    35 (   25) HAS LZ(WEIGHT)= 0.00(100.0%) 
 MO    36 (   26) HAS LZ(WEIGHT)= 0.00(100.0%) 
 MO    37 (   27) HAS LZ(WEIGHT)= 0.00(100.0%) 
 MO    38 (   28) HAS LZ(WEIGHT)= 0.00(100.0%) 
 ...... END OF ROHF CALCULATION ......
 CPU     0: STEP CPU TIME=     0.00 TOTAL CPU TIME=          0.2 (      0.0 MIN)
 TOTAL WALL CLOCK TIME=          0.2 SECONDS, CPU UTILIZATION IS    91.91%
 ..... END OF 1-ELECTRON GRADIENT ......
 CPU     0: STEP CPU TIME=     0.00 TOTAL CPU TIME=          0.2 (      0.0 MIN)
 TOTAL WALL CLOCK TIME=          0.2 SECONDS, CPU UTILIZATION IS    91.46%
 ...... END OF 2-ELECTRON GRADIENT ......
 CPU     0: STEP CPU TIME=     0.02 TOTAL CPU TIME=          0.2 (      0.0 MIN)
 TOTAL WALL CLOCK TIME=          0.2 SECONDS, CPU UTILIZATION IS    92.33%

          NSERCH=  3     ENERGY=     -92.2121377

                                 -----------------------
                                 GRADIENT (HARTREE/BOHR)
                                 -----------------------
        ATOM     ZNUC       DE/DX         DE/DY         DE/DZ
 --------------------------------------------------------------
    1  C            6.0     0.0000000     0.0000000     0.0000759
    2  N            7.0     0.0000000     0.0000000    -0.0000759

          MAXIMUM GRADIENT = 0.0000759    RMS GRADIENT = 0.0000438

 NSERCH:   3  E=      -92.2121376893  GRAD. MAX=  0.0000759  R.M.S.=  0.0000438

          HESSIAN UPDATED USING THE BFGS FORMULA
             ACTUAL ENERGY CHANGE WAS  -0.0000001213
          PREDICTED ENERGY CHANGE WAS  -0.0000001078 RATIO=  1.125
          MIN SEARCH, CORRECT HESSIAN, TRYING PURE NR STEP
               NR STEP HAS LENGTH         =   0.000036
          RADIUS OF STEP TAKEN=   0.00004  CURRENT TRUST RADIUS=   0.05000

 BEGINNING GEOMETRY SEARCH POINT NSERCH=   4 ...

 COORDINATES OF SYMMETRY UNIQUE ATOMS (ANGS)
   ATOM   CHARGE       X              Y              Z
 ------------------------------------------------------------
 C           6.0   0.0000000000   0.0000000000   0.0205742772
 N           7.0  -0.0000000000   0.0000000000   1.1512257228
 COORDINATES OF ALL ATOMS ARE (ANGS)
   ATOM   CHARGE       X              Y              Z
 ------------------------------------------------------------
 C           6.0   0.0000000000   0.0000000000   0.0205742772
 N           7.0  -0.0000000000   0.0000000000   1.1512257228

          INTERNUCLEAR DISTANCES (ANGS.)
          ------------------------------

                1 C          2 N     

   1 C       0.0000000    1.1306514 *
   2 N       1.1306514 *  0.0000000  

  * ... LESS THAN  3.000

 ...... END OF ONE-ELECTRON INTEGRALS ......
 CPU     0: STEP CPU TIME=     0.00 TOTAL CPU TIME=          0.2 (      0.0 MIN)
 TOTAL WALL CLOCK TIME=          0.2 SECONDS, CPU UTILIZATION IS    91.91%
 TOTAL NUMBER OF NONZERO TWO-ELECTRON INTEGRALS =               72577
          6 INTEGRAL RECORDS WERE STORED ON DISK FILE  8.
  ...... END OF TWO-ELECTRON INTEGRALS .....
 CPU     0: STEP CPU TIME=     0.02 TOTAL CPU TIME=          0.2 (      0.0 MIN)
 TOTAL WALL CLOCK TIME=          0.2 SECONDS, CPU UTILIZATION IS    95.94%

          ---------------------------
                 ROHF SCF CALCULATION
          ---------------------------
     DENSITY MATRIX CONV=  1.00E-05

 ITER EX      TOTAL ENERGY        E CHANGE  DENSITY CHANGE    DIIS ERROR
          * * *   INITIATING DIIS PROCEDURE   * * *
   1  0      -92.2121376906   -92.2121376906   0.000014268   0.000022243
   2  1      -92.2121376912    -0.0000000006   0.000008823   0.000009613
   3  2      -92.2121376912    -0.0000000001   0.000005675   0.000006410

          -----------------
          DENSITY CONVERGED
          -----------------
     TIME TO FORM FOCK OPERATORS=       0.0 SECONDS (       0.0 SEC/ITER)
     TIME TO SOLVE SCF EQUATIONS=       0.0 SECONDS (       0.0 SEC/ITER)

 FINAL ROHF ENERGY IS      -92.2121376912 AFTER   3 ITERATIONS

          --------------------
          SPIN SZ   =    0.500
          S-SQUARED =    0.750
          --------------------

 LZ VALUE ANALYSIS FOR THE MOS
 ----------------------------------------
 MO     1 (    1) HAS LZ(WEIGHT)= 0.00(100.0%) 
 MO     2 (    2) HAS LZ(WEIGHT)= 0.00(100.0%) 
 MO     3 (    3) HAS LZ(WEIGHT)= 0.00(100.0%) 
 MO     4 (    4) HAS LZ(WEIGHT)= 0.00(100.0%) 
 MO     5 (    5) HAS LZ(WEIGHT)=-1.00( 50.0%)  1.00( 50.0%) 
 MO     6 (    5) HAS LZ(WEIGHT)=-1.00( 50.0%)  1.00( 50.0%) 
 MO     7 (    6) HAS LZ(WEIGHT)= 0.00(100.0%) 
 MO     8 (    7) HAS LZ(WEIGHT)=-1.00( 50.0%)  1.00( 50.0%) 
 MO     9 (    7) HAS LZ(WEIGHT)=-1.00( 50.0%)  1.00( 50.0%) 
 MO    10 (    8) HAS LZ(WEIGHT)= 0.00(100.0%) 
 MO    11 (    9) HAS LZ(WEIGHT)= 0.00(100.0%) 
 MO    12 (   10) HAS LZ(WEIGHT)=-1.00( 50.0%)  1.00( 50.0%) 
 MO    13 (   10) HAS LZ(WEIGHT)=-1.00( 50.0%)  1.00( 50.0%) 
 MO    14 (   11) HAS LZ(WEIGHT)= 0.00(100.0%) 
 MO    15 (   12) HAS LZ(WEIGHT)=-1.00( 50.0%)  1.00( 50.0%) 
 MO    16 (   12) HAS LZ(WEIGHT)=-1.00( 50.0%)  1.00( 50.0%) 
 MO    17 (   13) HAS LZ(WEIGHT)= 0.00(100.0%) 
 MO    18 (   14) HAS LZ(WEIGHT)= 0.00(100.0%) 
 MO    19 (   15) HAS LZ(WEIGHT)=-2.00( 50.0%)  2.00( 50.0%) 
 MO    20 (   15) HAS LZ(WEIGHT)=-2.00( 50.0%)  2.00( 50.0%) 
 MO    21 (   16) HAS LZ(WEIGHT)=-1.00( 50.0%)  1.00( 50.0%) 
 MO    22 (   16) HAS LZ(WEIGHT)=-1.00( 50.0%)  1.00( 50.0%) 
 MO    23 (   17) HAS LZ(WEIGHT)= 0.00(100.0%) 
 MO    24 (   18) HAS LZ(WEIGHT)=-2.00( 50.0%)  2.00( 50.0%) 
 MO    25 (   18) HAS LZ(WEIGHT)=-2.00( 50.0%)  2.00( 50.0%) 
 MO    26 (   19) HAS LZ(WEIGHT)=-1.00( 50.0%)  1.00( 50.0%) 
 MO    27 (   19) HAS LZ(WEIGHT)=-1.00( 50.0%)  1.00( 50.0%) 
 MO    28 (   20) HAS LZ(WEIGHT)= 0.00(100.0%) 
 MO    29 (   21) HAS LZ(WEIGHT)=-1.00( 50.0%)  1.00( 50.0%) 
 MO    30 (   21) HAS LZ(WEIGHT)=-1.00( 50.0%)  1.00( 50.0%) 
 MO    31 (   22) HAS LZ(WEIGHT)= 0.00(100.0%) 
 MO    32 (   23) HAS LZ(WEIGHT)= 0.00(100.0%) 
 MO    33 (   24) HAS LZ(WEIGHT)=-1.00( 50.0%)  1.00( 50.0%) 
 MO    34 (   24) HAS LZ(WEIGHT)=-1.00( 50.0%)  1.00( 50.0%) 
 MO    35 (   25) HAS LZ(WEIGHT)= 0.00(100.0%) 
 MO    36 (   26) HAS LZ(WEIGHT)= 0.00(100.0%) 
 MO    37 (   27) HAS LZ(WEIGHT)= 0.00(100.0%) 
 MO    38 (   28) HAS LZ(WEIGHT)= 0.00(100.0%) 
 ...... END OF ROHF CALCULATION ......
 CPU     0: STEP CPU TIME=     0.00 TOTAL CPU TIME=          0.2 (      0.0 MIN)
 TOTAL WALL CLOCK TIME=          0.2 SECONDS, CPU UTILIZATION IS    92.69%
 ..... END OF 1-ELECTRON GRADIENT ......
 CPU     0: STEP CPU TIME=     0.00 TOTAL CPU TIME=          0.2 (      0.0 MIN)
 TOTAL WALL CLOCK TIME=          0.2 SECONDS, CPU UTILIZATION IS    92.30%
 ...... END OF 2-ELECTRON GRADIENT ......
 CPU     0: STEP CPU TIME=     0.03 TOTAL CPU TIME=          0.2 (      0.0 MIN)
 TOTAL WALL CLOCK TIME=          0.3 SECONDS, CPU UTILIZATION IS    95.06%

          NSERCH=  4     ENERGY=     -92.2121377

                                 -----------------------
                                 GRADIENT (HARTREE/BOHR)
                                 -----------------------
        ATOM     ZNUC       DE/DX         DE/DY         DE/DZ
 --------------------------------------------------------------
    1  C            6.0     0.0000000     0.0000000    -0.0000019
    2  N            7.0     0.0000000     0.0000000     0.0000019

          MAXIMUM GRADIENT = 0.0000019    RMS GRADIENT = 0.0000011

 NSERCH:   4  E=      -92.2121376912  GRAD. MAX=  0.0000019  R.M.S.=  0.0000011


      ***** EQUILIBRIUM GEOMETRY LOCATED *****
 COORDINATES OF SYMMETRY UNIQUE ATOMS (ANGS)
   ATOM   CHARGE       X              Y              Z
 ------------------------------------------------------------
 C           6.0   0.0000000000   0.0000000000   0.0205742772
 N           7.0  -0.0000000000   0.0000000000   1.1512257228
 COORDINATES OF ALL ATOMS ARE (ANGS)
   ATOM   CHARGE       X              Y              Z
 ------------------------------------------------------------
 C           6.0   0.0000000000   0.0000000000   0.0205742772
 N           7.0  -0.0000000000   0.0000000000   1.1512257228

          INTERNUCLEAR DISTANCES (ANGS.)
          ------------------------------

                1 C          2 N     

   1 C       0.0000000    1.1306514 *
   2 N       1.1306514 *  0.0000000  

  * ... LESS THAN  3.000


          NUCLEAR ENERGY    =       19.6572025394
          ELECTRONIC ENERGY =     -111.8693402306
          TOTAL ENERGY      =      -92.2121376912

          ------------------
          MOLECULAR ORBITALS
          ------------------

                      1          2          3          4          5
                  -15.6085   -11.3079    -1.2315    -0.5772    -0.5006
                     A1         A1         A1         A1         E   
    1  C  1  S   -0.000061   0.563456   0.076679  -0.062941   0.000000
    2  C  1  S    0.000114   0.466531   0.124998  -0.106080   0.000000
    3  C  1  X    0.000000   0.000000   0.000000   0.000000   0.179389
    4  C  1  Y    0.000000   0.000000   0.000000   0.000000   0.000000
    5  C  1  Z   -0.000171  -0.001212  -0.111687   0.056961   0.000000
    6  C  1  S   -0.000755   0.003761  -0.309631   0.298975   0.000000
    7  C  1  X    0.000000   0.000000   0.000000   0.000000   0.291287
    8  C  1  Y    0.000000   0.000000   0.000000   0.000000   0.000000
    9  C  1  Z   -0.000819   0.000912  -0.113821   0.050602   0.000000
   10  C  1  S   -0.000037   0.000767  -0.055749   0.118955   0.000000
   11  C  1  X    0.000000   0.000000   0.000000   0.000000   0.205500
   12  C  1  Y    0.000000   0.000000   0.000000   0.000000   0.000000
   13  C  1  Z    0.000053   0.000166   0.001152  -0.013385   0.000000
   14  C  1 XX    0.000156  -0.001028   0.013139  -0.000746   0.000000
   15  C  1 YY    0.000156  -0.001028   0.013139  -0.000746   0.000000
   16  C  1 ZZ   -0.000508  -0.000545  -0.011409  -0.000057   0.000000
   17  C  1 XY    0.000000   0.000000   0.000000   0.000000   0.000000
   18  C  1 XZ    0.000000   0.000000   0.000000   0.000000   0.045933
   19  C  1 YZ    0.000000   0.000000   0.000000   0.000000   0.000000
   20  N  2  S   -0.557810  -0.000468   0.101028   0.065036   0.000000
   21  N  2  S   -0.468208  -0.000481   0.166346   0.110935   0.000000
   22  N  2  X    0.000000   0.000000   0.000000   0.000000   0.197204
   23  N  2  Y    0.000000   0.000000   0.000000   0.000000   0.000000
   24  N  2  Z    0.002253  -0.000121   0.084472  -0.217081   0.000000
   25  N  2  S   -0.004270   0.000494  -0.446343  -0.320415   0.000000
   26  N  2  X    0.000000   0.000000   0.000000   0.000000   0.312905
   27  N  2  Y    0.000000   0.000000   0.000000   0.000000   0.000000
   28  N  2  Z   -0.001190  -0.000819   0.129323  -0.326962   0.000000
   29  N  2  S   -0.000156  -0.000344  -0.296830  -0.422529   0.000000
   30  N  2  X    0.000000   0.000000   0.000000   0.000000   0.246651
   31  N  2  Y    0.000000   0.000000   0.000000   0.000000   0.000000
   32  N  2  Z    0.000295   0.000250   0.045400  -0.244231   0.000000
   33  N  2 XX    0.000598  -0.000110   0.012481  -0.011103   0.000000
   34  N  2 YY    0.000598  -0.000110   0.012481  -0.011103   0.000000
   35  N  2 ZZ    0.000240   0.000775  -0.035387   0.031946   0.000000
   36  N  2 XY    0.000000   0.000000   0.000000   0.000000   0.000000
   37  N  2 XZ    0.000000   0.000000   0.000000   0.000000  -0.039049
   38  N  2 YZ    0.000000   0.000000   0.000000   0.000000   0.000000

                      6          7          8          9         10
                   -0.5006    -0.3384     0.1427     0.1427     0.3362
                     E          A1         E          E          A1  
    1  C  1  S    0.000000   0.069359   0.000000   0.000000  -0.011068
    2  C  1  S    0.000000   0.117040   0.000000   0.000000  -0.023841
    3  C  1  X    0.000000   0.000000   0.171729   0.000000   0.000000
    4  C  1  Y    0.179389   0.000000   0.000000   0.171729   0.000000
    5  C  1  Z    0.000000   0.234438   0.000000   0.000000  -0.031446
    6  C  1  S    0.000000  -0.367896   0.000000   0.000000   0.030340
    7  C  1  X    0.000000   0.000000   0.271310   0.000000   0.000000
    8  C  1  Y    0.291287   0.000000   0.000000   0.271310   0.000000
    9  C  1  Z    0.000000   0.343778   0.000000   0.000000  -0.031317
   10  C  1  S    0.000000  -0.414298   0.000000   0.000000   3.168123
   11  C  1  X    0.000000   0.000000   0.790783   0.000000   0.000000
   12  C  1  Y    0.205500   0.000000   0.000000   0.790783   0.000000
   13  C  1  Z    0.000000   0.195959   0.000000   0.000000   2.555576
   14  C  1 XX    0.000000  -0.001725   0.000000   0.000000  -0.002702
   15  C  1 YY    0.000000  -0.001725   0.000000   0.000000  -0.002702
   16  C  1 ZZ    0.000000  -0.044825   0.000000   0.000000  -0.038164
   17  C  1 XY    0.000000   0.000000   0.000000   0.000000   0.000000
   18  C  1 XZ    0.000000   0.000000  -0.079951   0.000000   0.000000
   19  C  1 YZ    0.045933   0.000000   0.000000  -0.079951   0.000000
   20  N  2  S    0.000000  -0.012737   0.000000   0.000000   0.041863
   21  N  2  S    0.000000  -0.020939   0.000000   0.000000   0.082184
   22  N  2  X    0.000000   0.000000  -0.190176   0.000000   0.000000
   23  N  2  Y    0.197204   0.000000   0.000000  -0.190176   0.000000
   24  N  2  Z    0.000000  -0.107269   0.000000   0.000000   0.035551
   25  N  2  S    0.000000   0.074657   0.000000   0.000000  -0.065365
   26  N  2  X    0.000000   0.000000  -0.242907   0.000000   0.000000
   27  N  2  Y    0.312905   0.000000   0.000000  -0.242907   0.000000
   28  N  2  Z    0.000000  -0.170568   0.000000   0.000000   0.021751
   29  N  2  S    0.000000  -0.052367   0.000000   0.000000  -3.566413
   30  N  2  X    0.000000   0.000000  -0.699248   0.000000   0.000000
   31  N  2  Y    0.246651   0.000000   0.000000  -0.699248   0.000000
   32  N  2  Z    0.000000  -0.108200   0.000000   0.000000   1.208422
   33  N  2 XX    0.000000  -0.007809   0.000000   0.000000   0.063971
   34  N  2 YY    0.000000  -0.007809   0.000000   0.000000   0.063971
   35  N  2 ZZ    0.000000   0.031310   0.000000   0.000000   0.006275
   36  N  2 XY    0.000000   0.000000   0.000000   0.000000   0.000000
   37  N  2 XZ    0.000000   0.000000  -0.011963   0.000000   0.000000
   38  N  2 YZ   -0.039049   0.000000   0.000000  -0.011963   0.000000

                     11         12         13         14         15
                    0.4422     0.5425     0.5425     0.7099     0.8843
                     A1         E          E          A1         E   
    1  C  1  S   -0.076456   0.000000   0.000000  -0.040555   0.000000
    2  C  1  S   -0.095923   0.000000   0.000000  -0.047682   0.000000
    3  C  1  X    0.000000   0.210404   0.000000   0.000000  -0.097385
    4  C  1  Y    0.000000   0.000000   0.210404   0.000000   0.000000
    5  C  1  Z   -0.128834   0.000000   0.000000   0.074560   0.000000
    6  C  1  S    0.948016   0.000000   0.000000   0.844753   0.000000
    7  C  1  X    0.000000   0.898992   0.000000   0.000000  -0.222050
    8  C  1  Y    0.000000   0.000000   0.898992   0.000000   0.000000
    9  C  1  Z   -0.544965   0.000000   0.000000   0.530971   0.000000
   10  C  1  S   -2.198016   0.000000   0.000000   1.129107   0.000000
   11  C  1  X    0.000000  -1.146270   0.000000   0.000000   0.799172
   12  C  1  Y    0.000000   0.000000  -1.146270   0.000000   0.000000
   13  C  1  Z    0.179123   0.000000   0.000000   0.323450   0.000000
   14  C  1 XX    0.173063   0.000000   0.000000   0.122443   0.000000
   15  C  1 YY    0.173063   0.000000   0.000000   0.122443   0.000000
   16  C  1 ZZ    0.224042   0.000000   0.000000   0.220300   0.000000
   17  C  1 XY    0.000000   0.000000   0.000000   0.000000   0.000000
   18  C  1 XZ    0.000000   0.008020   0.000000   0.000000   0.138909
   19  C  1 YZ    0.000000   0.000000   0.008020   0.000000   0.000000
   20  N  2  S   -0.016350   0.000000   0.000000   0.035127   0.000000
   21  N  2  S   -0.026391   0.000000   0.000000   0.054990   0.000000
   22  N  2  X    0.000000   0.013718   0.000000   0.000000   0.226693
   23  N  2  Y    0.000000   0.000000   0.013718   0.000000   0.000000
   24  N  2  Z    0.011861   0.000000   0.000000  -0.094394   0.000000
   25  N  2  S    0.076932   0.000000   0.000000  -0.159286   0.000000
   26  N  2  X    0.000000   0.090673   0.000000   0.000000   0.871056
   27  N  2  Y    0.000000   0.000000   0.090673   0.000000   0.000000
   28  N  2  Z    0.045352   0.000000   0.000000  -0.340082   0.000000
   29  N  2  S    0.790946   0.000000   0.000000  -1.545198   0.000000
   30  N  2  X    0.000000  -0.060549   0.000000   0.000000  -1.501116
   31  N  2  Y    0.000000   0.000000  -0.060549   0.000000   0.000000
   32  N  2  Z   -0.473126   0.000000   0.000000   2.090374   0.000000
   33  N  2 XX   -0.002655   0.000000   0.000000  -0.021894   0.000000
   34  N  2 YY   -0.002655   0.000000   0.000000  -0.021894   0.000000
   35  N  2 ZZ    0.021869   0.000000   0.000000  -0.047170   0.000000
   36  N  2 XY    0.000000   0.000000   0.000000   0.000000   0.000000
   37  N  2 XZ    0.000000  -0.038783   0.000000   0.000000  -0.013069
   38  N  2 YZ    0.000000   0.000000  -0.038783   0.000000   0.000000

                     16         17
                    0.8843     1.0116
                     E          A1  
    1  C  1  S    0.000000  -0.051841
    2  C  1  S    0.000000  -0.073658
    3  C  1  X    0.000000   0.000000
    4  C  1  Y   -0.097385   0.000000
    5  C  1  Z    0.000000   0.181010
    6  C  1  S    0.000000   0.684917
    7  C  1  X    0.000000   0.000000
    8  C  1  Y   -0.222050   0.000000
    9  C  1  Z    0.000000   0.793358
   10  C  1  S    0.000000   1.163870
   11  C  1  X    0.000000   0.000000
   12  C  1  Y    0.799172   0.000000
   13  C  1  Z    0.000000   0.414618
   14  C  1 XX    0.000000   0.252096
   15  C  1 YY    0.000000   0.252096
   16  C  1 ZZ    0.000000  -0.153365
   17  C  1 XY    0.000000   0.000000
   18  C  1 XZ    0.000000   0.000000
   19  C  1 YZ    0.138909   0.000000
   20  N  2  S    0.000000  -0.011518
   21  N  2  S    0.000000   0.005498
   22  N  2  X    0.000000   0.000000
   23  N  2  Y    0.226693   0.000000
   24  N  2  Z    0.000000   0.238801
   25  N  2  S    0.000000   0.507548
   26  N  2  X    0.000000   0.000000
   27  N  2  Y    0.871056   0.000000
   28  N  2  Z    0.000000   0.649852
   29  N  2  S    0.000000  -2.562923
   30  N  2  X    0.000000   0.000000
   31  N  2  Y   -1.501116   0.000000
   32  N  2  Z    0.000000   0.662984
   33  N  2 XX    0.000000   0.088017
   34  N  2 YY    0.000000   0.088017
   35  N  2 ZZ    0.000000   0.206513
   36  N  2 XY    0.000000   0.000000
   37  N  2 XZ    0.000000   0.000000
   38  N  2 YZ   -0.013069   0.000000

     ----------------------------------------------------------------
     PROPERTY VALUES FOR THE ROHF  SELF-CONSISTENT FIELD WAVEFUNCTION
     ----------------------------------------------------------------

          -----------------
          ENERGY COMPONENTS
          -----------------

         WAVEFUNCTION NORMALIZATION =       1.0000000000

                ONE ELECTRON ENERGY =    -163.3020158027
                TWO ELECTRON ENERGY =      51.4326755720
           NUCLEAR REPULSION ENERGY =      19.6572025394
                                      ------------------
                       TOTAL ENERGY =     -92.2121376912

 ELECTRON-ELECTRON POTENTIAL ENERGY =      51.4326755720
  NUCLEUS-ELECTRON POTENTIAL ENERGY =    -255.5070412005
   NUCLEUS-NUCLEUS POTENTIAL ENERGY =      19.6572025394
                                      ------------------
             TOTAL POTENTIAL ENERGY =    -184.4171630891
               TOTAL KINETIC ENERGY =      92.2050253979
                 VIRIAL RATIO (V/T) =       2.0000771356

  ...... PI ENERGY ANALYSIS ......

 ENERGY ANALYSIS:
            FOCK ENERGY=    -60.4366437130
          BARE H ENERGY=   -163.3020158027
     ELECTRONIC ENERGY =   -111.8693297578
         KINETIC ENERGY=     92.2050253979
          N-N REPULSION=     19.6572025394
           TOTAL ENERGY=    -92.2121272185
        SIGMA PART(1+2)=    -96.7259865666
               (K,V1,2)=     86.6323527179   -221.7392112212     38.3808719367
           PI PART(1+2)=    -15.1433431913
               (K,V1,2)=      5.5726726800    -33.7678299794     13.0518141081
  SIGMA SKELETON, ERROR=    -77.0687840272      0.0000000000
             MIXED PART= 0.00000E+00 0.00000E+00 0.00000E+00 0.00000E+00
 ...... END OF PI ENERGY ANALYSIS ......

          ---------------------------------------
          MULLIKEN AND LOWDIN POPULATION ANALYSES
          ---------------------------------------

     ATOMIC MULLIKEN POPULATION IN EACH MOLECULAR ORBITAL

                      1          2          3          4          5

                  2.000000   2.000000   2.000000   2.000000   2.000000

    1             0.000401   1.999771   0.648656   0.279747   0.926334
    2             1.999599   0.000229   1.351344   1.720253   1.073666

                      6          7

                  2.000000   1.000000

    1             0.926334   0.930113
    2             1.073666   0.069887

     ATOMIC SPIN POPULATION (ALPHA MINUS BETA)
       ATOM         MULL.POP.                    LOW.POP.
    1 C             0.930113                     0.897712
    2 N             0.069887                     0.102288

               ----- POPULATIONS IN EACH AO -----
                             MULLIKEN      LOWDIN
              1  C  1  S      1.10407     1.04798
              2  C  1  S      0.88902     0.91066
              3  C  1  X      0.17124     0.17183
              4  C  1  Y      0.17124     0.17183
              5  C  1  Z      0.22778     0.22621
              6  C  1  S      0.78240     0.45051
              7  C  1  X      0.43702     0.41323
              8  C  1  Y      0.43702     0.41323
              9  C  1  Z      0.38542     0.41357
             10  C  1  S      0.35791     0.31572
             11  C  1  X      0.29168     0.31741
             12  C  1  Y      0.29168     0.31741
             13  C  1  Z      0.10161     0.25124
             14  C  1 XX     -0.01092     0.12121
             15  C  1 YY     -0.01092     0.12121
             16  C  1 ZZ      0.03232     0.22192
             17  C  1 XY      0.00000     0.00000
             18  C  1 XZ      0.02639     0.03787
             19  C  1 YZ      0.02639     0.03787
             20  N  2  S      1.09533     1.04102
             21  N  2  S      0.89902     0.92156
             22  N  2  X      0.19399     0.19392
             23  N  2  Y      0.19399     0.19392
             24  N  2  Z      0.29807     0.29601
             25  N  2  S      0.94724     0.53783
             26  N  2  X      0.47841     0.44671
             27  N  2  Y      0.47841     0.44671
             28  N  2  Z      0.66609     0.64388
             29  N  2  S      0.84104     0.44896
             30  N  2  X      0.38580     0.40108
             31  N  2  Y      0.38580     0.40108
             32  N  2  Z      0.37110     0.44704
             33  N  2 XX     -0.00618     0.18048
             34  N  2 YY     -0.00618     0.18048
             35  N  2 ZZ      0.03578     0.22250
             36  N  2 XY      0.00000     0.00000
             37  N  2 XZ      0.01547     0.01793
             38  N  2 YZ      0.01547     0.01793

          ----- MULLIKEN ATOMIC OVERLAP POPULATIONS -----
          (OFF-DIAGONAL ELEMENTS NEED TO BE MULTIPLIED BY 2)

             1           2

    1    4.8414861
    2    0.8698700   6.4187738

          TOTAL MULLIKEN AND LOWDIN ATOMIC POPULATIONS
       ATOM         MULL.POP.    CHARGE          LOW.POP.     CHARGE
    1 C             5.711356    0.288644         5.960944    0.039056
    2 N             7.288644   -0.288644         7.039056   -0.039056

          -------------------------------
          BOND ORDER AND VALENCE ANALYSIS     BOND ORDER THRESHOLD=0.050
          -------------------------------

                   BOND                       BOND                       BOND
  ATOM PAIR DIST  ORDER      ATOM PAIR DIST  ORDER      ATOM PAIR DIST  ORDER
    1   2  1.131  2.982

                       TOTAL       BONDED        FREE
      ATOM            VALENCE     VALENCE     VALENCE
    1 C                 3.847       2.982       0.865
    2 N                 2.987       2.982       0.005

          -----------------------------------------
          ATOMIC SPIN DENSITY AT THE NUCLEUS (A.U.)
          -----------------------------------------
                            SPIN DENS    ALPHA DENS     BETA DENS
    1  C            6.0     0.8482115      60.41320      59.56499
    2  N            7.0     0.0471481      97.55263      97.50548

          ---------------------
          ELECTROSTATIC MOMENTS
          ---------------------

 POINT   1           X           Y           Z (BOHR)    CHARGE
                -0.000000    0.000000    1.189485        0.00 (A.U.)
         DX          DY          DZ         /D/  (DEBYE)
     0.000000    0.000000   -2.283680    2.283680
 ...... END OF PROPERTY EVALUATION ......
 CPU     0: STEP CPU TIME=     0.00 TOTAL CPU TIME=          0.2 (      0.0 MIN)
 TOTAL WALL CLOCK TIME=          0.3 SECONDS, CPU UTILIZATION IS    92.59%
  $VIB   
          IVIB=   0 IATOM=   0 ICOORD=   0 E=      -92.2121376912
  0.000000000E+00 0.000000000E+00-1.900523960E-06 0.000000000E+00 0.000000000E+00
  1.900525900E-06
  7.228373870E-38 0.000000000E+00-2.283679661E+00
 ......END OF GEOMETRY SEARCH......
 CPU     0: STEP CPU TIME=     0.00 TOTAL CPU TIME=          0.2 (      0.0 MIN)
 TOTAL WALL CLOCK TIME=          0.3 SECONDS, CPU UTILIZATION IS    92.59%
                988712  WORDS OF DYNAMIC MEMORY USED
 EXECUTION OF GAMESS TERMINATED NORMALLY 23:42:11 15-MAR-2023    
 DDI: 263640 bytes (0.3 MB / 0 MWords) used by master data server.

 ----------------------------------------
 CPU timing information for all processes
 ========================================
 0: 0.218750 + 0.140625 = 0.359375
 1: 0.265625 + 0.125000 = 0.390625
 2: 0.875000 + 1.468750 = 2.343750
 3: 0.765625 + 1.578125 = 2.343750
 ----------------------------------------
           Disk usage (in bytes)       
 ========================================
03/15/2023  11:41 PM               185 CN_6-311Gd.F05
03/15/2023  11:42 PM           540,048 CN_6-311Gd.F08
03/15/2023  11:42 PM           540,048 CN_6-311Gd.F08.001
03/15/2023  11:42 PM         7,983,680 CN_6-311Gd.F10
03/15/2023  11:42 PM            18,157 CN_6-311Gd.GMS.ENV
03/15/2023  11:42 PM               132 CN_6-311Gd.processes.mpd
 ----------------------------------------
            Local date and time          
 ========================================
Wed 03/15/2023 - 23:42:13.52                          
