          *******************************************************
          *                                                     *
          *      GAMESS VERSION = 30 SEP 2021 (R2 Patch 2)      *
          *                                                     *
          *              doi.org/10.1063/5.0005188              *
          *                                                     *
          ************ 64 BIT WINDOWS INTEL VERSION *************

  GAMESS HAS BEEN MADE POSSIBLE WITH IMPORTANT CONTRIBUTIONS FROM
  THE FOLLOWING INDIVIDUALS (IN ALPHABETICAL ORDER):

     IVANA ADAMOVIC, CHRISTINE AIKENS, TOMOKO AKAMA,
     MELISA ALKAN, YURI ALEXEEV, YURIKO AOKI, POOJA ARORA,
     TOSHIO ASADA, ANDREY ASADCHEV, KIM K. BALDRIDGE,
     PRADIPTA BANDYOPADHYAY, TAYLOR A. BARNES, MARIA BARYSZ,
     ROB BELL, JONATHAN BENTZ, COLLEEN BERTONI,
     JERRY A. BOATZ, BRETT BODE, KURT BRORSEN, KURT R. BRORSEN,
     LAIMUTIS BYTAUTAS, CALEB CARLIN, LAURA CARRINGTON,
     GALINA CHABAN, BENOIT CHAMPAGNE, WEI CHEN, MAHITO CHIBA,
     DAN CHIPMAN, CHEOL HO CHOI, TANNER CULPITT,
     DIPAYAN DATTA, PAUL DAY, ALBERT DEFUSCO,
     NUWAN DESILVA, J. EMILIANO DEUSTUA,
     TIM DUDLEY, MICHEL DUPUIS, STEVEN T. ELBERT,
     DMITRI FEDOROV, ALEX FINDLATER, GRAHAM FLETCHER,
     MARK FREITAG, CHRISTIAN FRIEDL, DAVID GARMER,
     IGOR S. GERASIMOV, KURT GLAESEMANN, MARK S. GORDON,
     JEFFREY GOUR, FENG LONG GU, EMILIE B. GUIDEZ,
     ANASTASIA GUNINA, SHARON HAMMES-SCHIFFER, MASATAKE HARUTA,
     KIMIHIKO HIRAO, YASUHIRO IKABATA, TZVETELIN IORDANOV,
     STEPHAN IRLE, KAZUYA ISHIMURA, JOE IVANIC, FRANK JENSEN,
     JAN H. JENSEN, VISVALDAS KAIRYS, MUNEAKI KAMIYA,
     MICHIO KATOUDA, NAOAKI KAWAKAMI, DAN KEMP, BERNARD KIRTMAN,
     KAZUO KITAURA, MARIUSZ KLOBUKOWSKI, MASATO KOBAYASHI,
     PRAKASHAN KORAMBATH, JACEK KORCHOWIEC, SHIRO KOSEKI,
     KAROL KOWALSKI, JIMMY KROMANN, STANISLAW KUCHARSKI,
     HENRY KURTZ, SAROM SOK LEANG, HUI LI, SHUHUA LI, WEI LI,
     JESSE LUTZ, ALEKSANDR O. LYKHIN, MARCIN MAKOWSKI,
     JOANI MATO, NIKITA MATSUNAGA, BENEDETTA MENNUCCI,
     GRANT MERRILL, NORIYUKI MINEZAWA, VLADIMIR MIRONOV,
     EISAKU MIYOSHI, JOHN A. MONTGOMERY JR., HIROTOSHI MORI,
     JONATHAN MULLIN, MONIKA MUSIAL, SHIGERU NAGASE,
     TAKESHI NAGATA, HIROMI NAKAI, TAKAHITO NAKAJIMA,
     YUYA NAKAJIMA, HARUYUKI NAKANO, HIROYA NAKATA, SEAN NEDD,
     HEATHER NETZLOFF, KIET A. NGUYEN, YOSHIO NISHIMOTO,
     BOSILJKA NJEGIC, RYAN OLSON, MIKE PAK, ROBERTO PEVERATI,
     BUU PHAM, PIOTR PIECUCH, ANNA POMOGAEVA, DAVID POOLE,
     SPENCER PRUITT, OLIVIER QUINET, LUKE ROSKOP,
     KLAUS RUEDENBERG, ANDREW SAND, TOSAPORN SATTASATHUCHANA,
     NOZOMI SAWADA, MICHAEL W. SCHMIDT, PATRICK E. SCHNEIDER,
     JUNJI SEINO, PRACHI SHARMA, JUN SHEN, JIM SHOEMAKER,
     YINAN SHU, DEJUN SI, JONATHAN SKONE, LYUDMILA SLIPCHENKO,
     TONY SMITH, JIE SONG, MARK SPACKMAN, CASPER STEINMANN,
     WALT STEVENS, PEIFENG SU, SHUJUN SU, CHET SWALINA,
     TETSUYA TAKETSUGU, ZHEN TAO, NANDUN THELLAMUREGE
     SEIKEN TOKURA, JACOPO TOMASI, TSUGUKI TOUMA, TAKAO TSUNEDA,
     HIROAKI UMEDA, JORGE LUIS GALVEZ VALLEJO, YALI WANG,
     SIMON WEBB, AARON WEST, THERESA L. WINDUS, MARTA WLOCH,
     PENG XU, KIYOSHI YAGI, SUSUMU YANAGISAWA, YANG YANG,
     SOOHAENG YOO, TAKESHI YOSHIKAWA, FEDERICO ZAHARIEV,
     TOBY ZENG

  WHO ARE SUPPORTED BY THEIR INSTITUTION/UNIVERSITY/COMPANY/GROUP
  (IN ALPHABETICAL ORDER):

     EP ANALYTICS, FACULTES UNIVERSITAIRES NOTRE-DAME DE LA PAIX,
     INSTITUTE FOR MOLECULAR SCIENCE, IOWA STATE UNIVERSITY,
     JACKSON STATE UNIVERSITY, JOHANNES KEPLER UNIVERSITY LINZ,
     KYUSHU UNIVERSITY, MICHIGAN STATE UNIVERSITY,
     MIE UNIVERSITY, THE MOLECULAR SCIENCES SOFTWARE INSTITUTE,
     MOSCOW STATE UNIVERSITY,
     N. COPERNICUS UNIVERSITY, NAGOYA UNIVERSITY,
     NANJING UNIVERSITY, NAT. INST. OF ADVANCED INDUSTRIAL
     SCIENCE AND TECHNOLOGY, NATIONAL INST. OF STANDARDS AND
     TECHNOLOGY, NESMEYANOV INSTITUTE OF ORGANOELEMENT COMPOUNDS
     OF RUSSIAN ACADEMY OF SCIENCES, OSAKA PREFECTURE UNIVERSITY,
     PENNSYLVANIA STATE UNIVERSITY, TOKYO INSTITUTE OF TECHNOLOGY,
     UNIVERSITY OF AARHUS, UNIVERSITY OF ALBERTA,
     UNIVERSITY OF CALIFORNIA AT SANTA BARBARA,
     UNIVERSITY OF COPENHAGEN, UNIVERSITY OF IOWA,
     UNIVERSITY OF MEMPHIS, UNIVERSITY OF MINNESOTA,
     UNIVERSITY OF NEBRASKA, UNIVERSITY OF NEW ENGLAND,
     UNIVERSITY OF NOTRE DAME, UNIVERSITY OF PISA,
     UNIVERSITY OF SILESIA, UNIVERSITY OF TOKYO,
     UNIVERSITY OF ZURICH, WASEDA UNIVERSITY, YALE UNIVERSITY

  GAMESS SOFTWARE MANAGEMENT TEAM FOR THIS RELEASE:
     MARK S. GORDON (TEAM LEAD),
     BRETT BODE (SENIOR ADVISOR),
     GIUSEPPE BARCA,
     COLLEEN BERTONI,
     KRISTOPHER KEIPERT (ADVISOR),
     SAROM S. LEANG (DEVELOPMENT LEAD),
     BUU PHAM,
     JORGE LUIS GALVEZ VALLEJO (WEBSITE ADMINISTRATOR),
     PENG XU


 PARALLEL VERSION RUNNING ON        2 PROCESSORS IN        2 NODES.

 EXECUTION OF GAMESS BEGUN 23:36:39 15-MAR-2023    

            ECHO OF THE FIRST FEW INPUT CARDS -
 INPUT CARD> $CONTRL SCFTYP=RHF RUNTYP=OPTIMIZE $END                                        
 INPUT CARD> $BASIS GBASIS=N311 NGAUSS=6 NDFUNC=1  $END                                     
 INPUT CARD> $DATA                                                                          
 INPUT CARD>    6-311G(d) HCN                                                               
 INPUT CARD>CS                                                                              
 INPUT CARD>                                                                                
 INPUT CARD>N   7.0   -.0004620071    .0002821165    .0000000000                            
 INPUT CARD>C   6.0   1.2208931990   -.0003427488    .0000000000                            
 INPUT CARD>H   1.0    .8654562191   1.1478852258    .0000000000                            
 INPUT CARD>  $END                                                                          
    1000000 WORDS OF MEMORY AVAILABLE

     BASIS OPTIONS
     -------------
     GBASIS=N311         IGAUSS=       6      POLAR=POPN311 
     NDFUNC=       1     NFFUNC=       0     DIFFSP=       F
     NPFUNC=       0      DIFFS=       F     BASNAM=        


     RUN TITLE
     ---------
     6-311G(d) HCN                                                               

 THE POINT GROUP OF THE MOLECULE IS CS      
 THE ORDER OF THE PRINCIPAL AXIS IS     0

 ATOM      ATOMIC                      COORDINATES (BOHR)
           CHARGE         X                   Y                   Z
 N           7.0    -0.0008730668        0.0005331229        0.0000000000
 C           6.0     2.3071536064       -0.0006477013        0.0000000000
 H           1.0     1.6354751085        2.1691885421        0.0000000000

          INTERNUCLEAR DISTANCES (ANGS.)
          ------------------------------

                1 N          2 C          3 H     

   1 N       0.0000000    1.2213554 *  1.4376395 *
   2 C       1.2213554 *  0.0000000    1.2019829 *
   3 H       1.4376395 *  1.2019829 *  0.0000000  

  * ... LESS THAN  3.000


     ATOMIC BASIS SET
     ----------------
 THE CONTRACTED PRIMITIVE FUNCTIONS HAVE BEEN UNNORMALIZED
 THE CONTRACTED BASIS FUNCTIONS ARE NOW NORMALIZED TO UNITY

  SHELL TYPE  PRIMITIVE        EXPONENT          CONTRACTION COEFFICIENT(S)

 N         

      1   S       1          6293.4800000    0.001969788147
      1   S       2           949.0440000    0.014961285923
      1   S       3           218.7760000    0.073500530843
      1   S       4            63.6916000    0.248936765774
      1   S       5            18.8282000    0.602459433142
      1   S       6             2.7202300    0.256201758938

      2   L       7            30.6331000    0.111906079519    0.038311918640
      2   L       8             7.0261400    0.921666654920    0.237403115502
      2   L       9             2.1120500   -0.002569191826    0.817592397779

      3   L      10             0.6840090    1.000000000000    1.000000000000

      4   L      11             0.2008780    1.000000000000    1.000000000000

      5   D      12             0.9130000    1.000000000000

 C         

      6   S      13          4563.2400000    0.001966650249
      6   S      14           682.0240000    0.015230601932
      6   S      15           154.9730000    0.076126909656
      6   S      16            44.4553000    0.260801033080
      6   S      17            13.0290000    0.616462078191
      6   S      18             1.8277300    0.221006028032

      7   L      19            20.9642000    0.114660080729    0.040248692673
      7   L      20             4.8033100    0.919999647749    0.237593956746
      7   L      21             1.4593300   -0.003030682134    0.815853851473

      8   L      22             0.4834560    1.000000000000    1.000000000000

      9   L      23             0.1455850    1.000000000000    1.000000000000

     10   D      24             0.6260000    1.000000000000

 H         

     11   S      25            33.8650000    0.025493814541
     11   S      26             5.0947900    0.190373108582
     11   S      27             1.1587900    0.852161486043

     12   S      28             0.3258400    1.000000000000

     13   S      29             0.1027410    1.000000000000

 TOTAL NUMBER OF BASIS SET SHELLS             =   13
 NUMBER OF CARTESIAN GAUSSIAN BASIS FUNCTIONS =   41
 NUMBER OF ELECTRONS                          =   14
 CHARGE OF MOLECULE                           =    0
 SPIN MULTIPLICITY                            =    1
 NUMBER OF OCCUPIED ORBITALS (ALPHA)          =    7
 NUMBER OF OCCUPIED ORBITALS (BETA )          =    7
 TOTAL NUMBER OF ATOMS                        =    3
 THE NUCLEAR REPULSION ENERGY IS       23.4154954113

     $CONTRL OPTIONS
     ---------------
 SCFTYP=RHF          RUNTYP=OPTIMIZE     EXETYP=RUN     
 MPLEVL=       0     CITYP =NONE         CCTYP =NONE         VBTYP =NONE    
 DFTTYP=NONE         TDDFT =NONE    
 MULT  =       1     ICHARG=       0     NZVAR =       0     COORD =UNIQUE  
 PP    =NONE         RELWFN=NONE         LOCAL =NONE         NUMGRD=       F
 ISPHER=      -1     NOSYM =       0     MAXIT =      30     UNITS =ANGS    
 PLTORB=       F     MOLPLT=       F     AIMPAC=       F     FRIEND=        
 NPRINT=       7     IREST =       0     GEOM  =INPUT   
 NORMF =       0     NORMP =       0     ITOL  =      20     ICUT  =       9
 INTTYP=BEST         GRDTYP=BEST         QMTTOL= 1.0E-06

     $SYSTEM OPTIONS
     ---------------
  REPLICATED MEMORY=     1000000 WORDS (ON EVERY NODE).
 DISTRIBUTED MEMDDI=           0 MILLION WORDS IN AGGREGATE,
 MEMDDI DISTRIBUTED OVER   2 PROCESSORS IS           0 WORDS/PROCESSOR.
 TOTAL MEMORY REQUESTED ON EACH PROCESSOR=     1000000 WORDS.
 TIMLIM=      525600.00 MINUTES, OR     365.0 DAYS.
 PARALL= T  BALTYP=  DLB     KDIAG=    0  COREFL= F
 MXSEQ2=     300 MXSEQ3=     150  mem10=         0  mem22=         0

          ----------------
          PROPERTIES INPUT
          ----------------

     MOMENTS            FIELD           POTENTIAL          DENSITY
 IEMOM =       1   IEFLD =       0   IEPOT =       0   IEDEN =       0
 WHERE =COMASS     WHERE =NUCLEI     WHERE =NUCLEI     WHERE =NUCLEI  
 OUTPUT=BOTH       OUTPUT=BOTH       OUTPUT=BOTH       OUTPUT=BOTH    
 IEMINT=       0   IEFINT=       0                     IEDINT=       0
                                                       MORB  =       0
          EXTRAPOLATION IN EFFECT
          SOSCF IN EFFECT
 ORBITAL PRINTING OPTION: NPREO=     1    41     2     1

     -------------------------------
     INTEGRAL TRANSFORMATION OPTIONS
     -------------------------------
     NWORD  =            0
     CUTOFF = 1.0E-09     MPTRAN =       0
     DIRTRF =       F     AOINTS =DUP     

          ----------------------
          INTEGRAL INPUT OPTIONS
          ----------------------
 NOPK  =       1 NORDER=       0 SCHWRZ=       F

     ------------------------------------------
     THE POINT GROUP IS CS , NAXIS= 0, ORDER= 2
     ------------------------------------------

     DIMENSIONS OF THE SYMMETRY SUBSPACES ARE
 A'  =   31     A'' =   10

 ..... DONE SETTING UP THE RUN .....
 CPU     0: STEP CPU TIME=     0.02 TOTAL CPU TIME=          0.0 (      0.0 MIN)
 TOTAL WALL CLOCK TIME=          0.0 SECONDS, CPU UTILIZATION IS   156.25%


          -----------------------------
          STATIONARY POINT LOCATION RUN
          -----------------------------

 OBTAINING INITIAL HESSIAN, HESS=GUESS   
 CARTESIAN COORDINATE OPTIMIZATION USING BADGER'S RULE FORCE CONSTANT GUESS

          PARAMETERS CONTROLLING GEOMETRY SEARCH ARE
          METHOD =QA                  UPHESS =BFGS    
          NNEG   =         0          NFRZ   =         0
          NSTEP  =        50          IFOLOW =         1
          HESS   =GUESS               RESTAR =         F
          IHREP  =         0          HSSEND =         F
          NPRT   =         0          NPUN   =         0
          OPTTOL = 1.000E-04          RMIN   = 1.500E-03
          RMAX   = 1.000E-01          RLIM   = 7.000E-02
          DXMAX  = 3.000E-01          PURIFY =         F
          MOVIE  =         F          TRUPD  =         T
          TRMAX  = 5.000E-01          TRMIN  = 5.000E-02
          ITBMAT =         5          STPT   =         F
          STSTEP = 1.000E-02          PROJCT=          T

 BEGINNING GEOMETRY SEARCH POINT NSERCH=   0 ...

 COORDINATES OF SYMMETRY UNIQUE ATOMS (ANGS)
   ATOM   CHARGE       X              Y              Z
 ------------------------------------------------------------
 N           7.0  -0.0004620071   0.0002821165   0.0000000000
 C           6.0   1.2208931990  -0.0003427488   0.0000000000
 H           1.0   0.8654562191   1.1478852258   0.0000000000
 COORDINATES OF ALL ATOMS ARE (ANGS)
   ATOM   CHARGE       X              Y              Z
 ------------------------------------------------------------
 N           7.0  -0.0004620071   0.0002821165   0.0000000000
 C           6.0   1.2208931990  -0.0003427488   0.0000000000
 H           1.0   0.8654562191   1.1478852258   0.0000000000

          ********************
          1 ELECTRON INTEGRALS
          ********************
 ...... END OF ONE-ELECTRON INTEGRALS ......
 CPU     0: STEP CPU TIME=     0.00 TOTAL CPU TIME=          0.0 (      0.0 MIN)
 TOTAL WALL CLOCK TIME=          0.0 SECONDS, CPU UTILIZATION IS   142.05%

          -------------
          GUESS OPTIONS
          -------------
          GUESS =HUCKEL            NORB  =       0          NORDER=       0
          MIX   =       F          PRTMO =       F          PUNMO =       F
          TOLZ  = 1.0E-08          TOLE  = 1.0E-05
          SYMDEN=       F          PURIFY=       F

 INITIAL GUESS ORBITALS GENERATED BY HUCKEL   ROUTINE.
 HUCKEL GUESS REQUIRES     15186 WORDS.

 SYMMETRIES FOR INITIAL GUESS ORBITALS FOLLOW.   BOTH SET(S).
     7 ORBITALS ARE OCCUPIED (    2 CORE ORBITALS).
     3=A'       4=A'       5=A''      6=A'       7=A'       8=A'       9=A'' 
    10=A'      11=A'      12=A'      13=A'      14=A'      15=A'      16=A'  
    17=A'  
 ...... END OF INITIAL ORBITAL SELECTION ......
 CPU     0: STEP CPU TIME=     0.00 TOTAL CPU TIME=          0.0 (      0.0 MIN)
 TOTAL WALL CLOCK TIME=          0.0 SECONDS, CPU UTILIZATION IS   111.61%

                    ----------------------
                    AO INTEGRAL TECHNOLOGY
                    ----------------------
     S,P,L SHELL ROTATED AXIS INTEGRALS, REPROGRAMMED BY
        KAZUYA ISHIMURA (IMS) AND JOSE SIERRA (SYNSTAR).
     S,P,D,L SHELL ROTATED AXIS INTEGRALS PROGRAMMED BY
        KAZUYA ISHIMURA (INSTITUTE FOR MOLECULAR SCIENCE).
     S,P,D,F,G SHELL TO TOTAL QUARTET ANGULAR MOMENTUM SUM 5,
        ERIC PROGRAM BY GRAHAM FLETCHER (ELORET AND NASA ADVANCED
        SUPERCOMPUTING DIVISION, AMES RESEARCH CENTER).
     S,P,D,F,G,L SHELL GENERAL RYS QUADRATURE PROGRAMMED BY
        MICHEL DUPUIS (PACIFIC NORTHWEST NATIONAL LABORATORY).

          --------------------
          2 ELECTRON INTEGRALS
          --------------------

 THE -PK- OPTION IS OFF, THE INTEGRALS ARE NOT IN SUPERMATRIX FORM.
 STORING   15000 INTEGRALS/RECORD ON DISK, USING 12 BYTES/INTEGRAL.
 TWO ELECTRON INTEGRAL EVALUATION REQUIRES   90487 WORDS OF MEMORY.
 II,JST,KST,LST =  1  1  1  1 NREC =         1 INTLOC =    1
 II,JST,KST,LST =  2  1  1  1 NREC =         1 INTLOC =    2
 II,JST,KST,LST =  3  1  1  1 NREC =         1 INTLOC =   33
 II,JST,KST,LST =  4  1  1  1 NREC =         1 INTLOC =  159
 II,JST,KST,LST =  5  1  1  1 NREC =         1 INTLOC =  379
 II,JST,KST,LST =  6  1  1  1 NREC =         1 INTLOC = 1084
 II,JST,KST,LST =  7  1  1  1 NREC =         1 INTLOC = 3360
 II,JST,KST,LST =  8  1  1  1 NREC =         1 INTLOC = 9119
 II,JST,KST,LST =  9  1  1  1 NREC =         2 INTLOC = 6285
 II,JST,KST,LST = 10  1  1  1 NREC =         3 INTLOC =  720
 II,JST,KST,LST = 11  1  1  1 NREC =         5 INTLOC = 1064
 II,JST,KST,LST = 12  1  1  1 NREC =         5 INTLOC =10913
 II,JST,KST,LST = 13  1  1  1 NREC =         6 INTLOC = 3724
 TOTAL NUMBER OF NONZERO TWO-ELECTRON INTEGRALS =              186200
         13 INTEGRAL RECORDS WERE STORED ON DISK FILE  8.
  ...... END OF TWO-ELECTRON INTEGRALS .....
 CPU     0: STEP CPU TIME=     0.02 TOTAL CPU TIME=          0.0 (      0.0 MIN)
 TOTAL WALL CLOCK TIME=          0.0 SECONDS, CPU UTILIZATION IS   100.81%

          --------------------------
                 RHF SCF CALCULATION
          --------------------------

     NUCLEAR ENERGY =        23.4154954113
     MAXIT =   30     NPUNCH=    2
     EXTRAP=T  DAMP=F  SHIFT=F  RSTRCT=F  DIIS=F  DEM=F  SOSCF=T
     DENSITY MATRIX CONV=  1.00E-05
     SOSCF WILL OPTIMIZE     238 ORBITAL ROTATIONS, SOGTOL=   0.250
     MEMORY REQUIRED FOR RHF ITERS=     43293 WORDS.

 ITER EX DEM     TOTAL ENERGY        E CHANGE  DENSITY CHANGE     ORB. GRAD
   1  0  0      -92.3904346274   -92.3904346274   0.346119280   0.000000000
          ---------------START SECOND ORDER SCF---------------
   2  1  0      -92.7933013211    -0.4028666937   0.104432925   0.038230389
   3  2  0      -92.8068799129    -0.0135785919   0.080853684   0.023692520
   4  3  0      -92.8100246327    -0.0031447197   0.009405473   0.007658168
   5  4  0      -92.8107208470    -0.0006962143   0.009101862   0.003224902
   6  5  0      -92.8109429242    -0.0002220772   0.004690192   0.001699591
   7  6  0      -92.8109779461    -0.0000350219   0.001078883   0.000398698
   8  7  0      -92.8109792371    -0.0000012911   0.000308087   0.000061095
   9  8  0      -92.8109793367    -0.0000000996   0.000044439   0.000025880
  10  9  0      -92.8109793492    -0.0000000125   0.000018902   0.000010911
  11 10  0      -92.8109793516    -0.0000000024   0.000014659   0.000005182
  12 11  0      -92.8109793519    -0.0000000003   0.000003754   0.000001740
  13 12  0      -92.8109793519    -0.0000000000   0.000000609   0.000000518

          -----------------
          DENSITY CONVERGED
          -----------------
     TIME TO FORM FOCK OPERATORS=       0.0 SECONDS (       0.0 SEC/ITER)
     TIME TO SOLVE SCF EQUATIONS=       0.0 SECONDS (       0.0 SEC/ITER)

 FINAL RHF ENERGY IS      -92.8109793519 AFTER  13 ITERATIONS

          ------------
          EIGENVECTORS
          ------------

                      1          2          3          4          5
                  -15.6617   -11.3080    -1.2895    -0.7100    -0.6151
                     A'         A'         A'         A'         A'  
    1  N  1  S    0.557839  -0.000342  -0.095050  -0.073397   0.018924
    2  N  1  S    0.468272  -0.000399  -0.156328  -0.124520   0.032666
    3  N  1  X    0.001702   0.000289   0.082290  -0.122620   0.154957
    4  N  1  Y    0.000301   0.000015   0.005893  -0.047227  -0.116336
    5  N  1  Z    0.000000   0.000000   0.000000   0.000000   0.000000
    6  N  1  S    0.004128   0.000767   0.419537   0.361645  -0.084959
    7  N  1  X   -0.000761   0.001144   0.120841  -0.180408   0.234519
    8  N  1  Y   -0.000106   0.000014   0.012495  -0.076097  -0.192320
    9  N  1  Z    0.000000   0.000000   0.000000   0.000000   0.000000
   10  N  1  S    0.000260   0.000045   0.293578   0.430690  -0.203388
   11  N  1  X    0.000225   0.000143   0.055962  -0.117527   0.146369
   12  N  1  Y    0.000073   0.000010   0.012285  -0.040051  -0.151884
   13  N  1  Z    0.000000   0.000000   0.000000   0.000000   0.000000
   14  N  1 XX    0.000024   0.000627   0.024880  -0.008863   0.026217
   15  N  1 YY   -0.000650  -0.000097  -0.006567  -0.000842  -0.016323
   16  N  1 ZZ   -0.000281  -0.000060  -0.011844   0.006429  -0.000763
   17  N  1 XY   -0.000021   0.000009   0.004407  -0.012294  -0.025771
   18  N  1 XZ    0.000000   0.000000   0.000000   0.000000   0.000000
   19  N  1 YZ    0.000000   0.000000   0.000000   0.000000   0.000000
   20  C  2  S    0.000071   0.563568  -0.070957   0.062150  -0.031384
   21  C  2  S   -0.000047   0.466432  -0.113899   0.102702  -0.053624
   22  C  2  X   -0.000144  -0.002038  -0.092586  -0.028826  -0.071331
   23  C  2  Y   -0.000015   0.000903   0.010026  -0.067647  -0.119709
   24  C  2  Z    0.000000   0.000000   0.000000   0.000000   0.000000
   25  C  2  S    0.000351   0.003505   0.290221  -0.291583   0.157690
   26  C  2  X   -0.000608   0.001100  -0.131615  -0.031134  -0.102614
   27  C  2  Y    0.000001  -0.000281   0.030206  -0.134066  -0.207419
   28  C  2  Z    0.000000   0.000000   0.000000   0.000000   0.000000
   29  C  2  S   -0.000009   0.000882   0.060754  -0.248880   0.117576
   30  C  2  X    0.000010  -0.000351   0.006185  -0.033301  -0.031893
   31  C  2  Y   -0.000013   0.000269   0.005909  -0.067438  -0.091395
   32  C  2  Z    0.000000   0.000000   0.000000   0.000000   0.000000
   33  C  2 XX    0.000403  -0.000504   0.031001   0.003232   0.019755
   34  C  2 YY   -0.000106  -0.000720  -0.000085  -0.035792  -0.031153
   35  C  2 ZZ   -0.000102  -0.000941  -0.018139   0.004430  -0.001024
   36  C  2 XY   -0.000017  -0.000079  -0.011392   0.023569   0.036077
   37  C  2 XZ    0.000000   0.000000   0.000000   0.000000   0.000000
   38  C  2 YZ    0.000000   0.000000   0.000000   0.000000   0.000000
   39  H  3  S    0.000018   0.000299   0.060958  -0.107039  -0.115760
   40  H  3  S    0.000015  -0.000018   0.052485  -0.160038  -0.208701
   41  H  3  S   -0.000006  -0.000274  -0.009341  -0.014862  -0.091482

                      6          7          8          9         10
                   -0.5222    -0.4945     0.0951     0.1569     0.1635
                     A''        A'         A'         A''        A'  
    1  N  1  S    0.000000  -0.001080   0.010972   0.000000   0.013443
    2  N  1  S    0.000000  -0.001845   0.020501   0.000000   0.023696
    3  N  1  X    0.000000  -0.139934  -0.005887   0.000000   0.021211
    4  N  1  Y    0.000000  -0.064196  -0.205754   0.000000   0.076407
    5  N  1  Z    0.221792   0.000000   0.000000  -0.173246   0.000000
    6  N  1  S    0.000000   0.014056  -0.030463   0.000000  -0.078957
    7  N  1  X    0.000000  -0.205635  -0.014915   0.000000   0.031752
    8  N  1  Y    0.000000  -0.105171  -0.290275   0.000000   0.113885
    9  N  1  Z    0.351802   0.000000   0.000000  -0.240368   0.000000
   10  N  1  S    0.000000  -0.012733  -0.338499   0.000000  -0.033816
   11  N  1  X    0.000000  -0.203707  -0.058369   0.000000   0.166672
   12  N  1  Y    0.000000  -0.110360  -0.654804   0.000000   0.280482
   13  N  1  Z    0.317253   0.000000   0.000000  -0.598493   0.000000
   14  N  1 XX    0.000000  -0.016000   0.000587   0.000000  -0.005218
   15  N  1 YY    0.000000   0.004631   0.012368   0.000000   0.010987
   16  N  1 ZZ    0.000000   0.012170   0.010405   0.000000  -0.002105
   17  N  1 XY    0.000000  -0.017159  -0.008869   0.000000  -0.011717
   18  N  1 XZ    0.034932   0.000000   0.000000   0.013250   0.000000
   19  N  1 YZ    0.004380   0.000000   0.000000  -0.002754   0.000000
   20  C  2  S    0.000000  -0.056304   0.024900   0.000000   0.016478
   21  C  2  S    0.000000  -0.096462   0.045437   0.000000   0.031767
   22  C  2  X    0.000000   0.193015  -0.034822   0.000000  -0.019364
   23  C  2  Y    0.000000  -0.053500   0.047906   0.000000  -0.159948
   24  C  2  Z    0.137418   0.000000   0.000000   0.186560   0.000000
   25  C  2  S    0.000000   0.259552  -0.089817   0.000000  -0.028589
   26  C  2  X    0.000000   0.286334  -0.060460   0.000000  -0.013193
   27  C  2  Y    0.000000  -0.081426   0.091867   0.000000  -0.219378
   28  C  2  Z    0.230705   0.000000   0.000000   0.264781   0.000000
   29  C  2  S    0.000000   0.550750  -0.494345   0.000000  -1.119785
   30  C  2  X    0.000000   0.137656  -0.150461   0.000000   0.131015
   31  C  2  Y    0.000000  -0.051299   0.098728   0.000000  -0.953777
   32  C  2  Z    0.170949   0.000000   0.000000   0.807895   0.000000
   33  C  2 XX    0.000000  -0.028267  -0.002893   0.000000   0.014019
   34  C  2 YY    0.000000   0.016030   0.036690   0.000000   0.000796
   35  C  2 ZZ    0.000000   0.013596   0.003435   0.000000   0.028517
   36  C  2 XY    0.000000   0.027208   0.028792   0.000000   0.006399
   37  C  2 XZ   -0.054951   0.000000   0.000000   0.011793   0.000000
   38  C  2 YZ    0.011358   0.000000   0.000000   0.014240   0.000000
   39  H  3  S    0.000000  -0.015644   0.106708   0.000000   0.014904
   40  H  3  S    0.000000  -0.039902   0.214255   0.000000  -0.091150
   41  H  3  S    0.000000   0.033386   0.898713   0.000000   1.713109

                     11         12         13         14         15
                    0.3480     0.4518     0.5870     0.5878     0.6721
                     A'         A'         A'         A''        A'  
    1  N  1  S    0.034390   0.023703   0.012391   0.000000  -0.024318
    2  N  1  S    0.062407   0.044801   0.018978   0.000000  -0.039259
    3  N  1  X   -0.063620  -0.000024   0.038443   0.000000  -0.047024
    4  N  1  Y    0.001842   0.037712   0.037828   0.000000   0.013781
    5  N  1  Z    0.000000   0.000000   0.000000  -0.027881   0.000000
    6  N  1  S   -0.127204  -0.045535  -0.073074   0.000000   0.074719
    7  N  1  X   -0.068933   0.028301   0.114530   0.000000  -0.257296
    8  N  1  Y   -0.010379   0.036010   0.157542   0.000000   0.012231
    9  N  1  Z    0.000000   0.000000   0.000000  -0.159757   0.000000
   10  N  1  S   -1.831983  -2.635829  -0.689022   0.000000   0.324037
   11  N  1  X   -0.845936  -1.042283  -0.489149   0.000000   1.284849
   12  N  1  Y    0.134662   0.060879  -0.138733   0.000000   0.018747
   13  N  1  Z    0.000000   0.000000   0.000000   0.170537   0.000000
   14  N  1 XX   -0.006837   0.002580  -0.023379   0.000000   0.011757
   15  N  1 YY    0.033534  -0.000722  -0.012006   0.000000   0.007361
   16  N  1 ZZ    0.013225   0.049275   0.006547   0.000000   0.025451
   17  N  1 XY    0.002682  -0.009164   0.028127   0.000000  -0.011316
   18  N  1 XZ    0.000000   0.000000   0.000000  -0.044536   0.000000
   19  N  1 YZ    0.000000   0.000000   0.000000   0.000190   0.000000
   20  C  2  S   -0.004495  -0.028322   0.054096   0.000000   0.067539
   21  C  2  S   -0.013573  -0.050492   0.063995   0.000000   0.077821
   22  C  2  X   -0.002305   0.006892  -0.075734   0.000000   0.046375
   23  C  2  Y   -0.033954   0.032352   0.150655   0.000000  -0.066711
   24  C  2  Z    0.000000   0.000000   0.000000  -0.207848   0.000000
   25  C  2  S   -0.063048   0.033260  -0.679881   0.000000  -1.199295
   26  C  2  X    0.058498   0.004335  -0.387011   0.000000   0.346328
   27  C  2  Y   -0.009586   0.018402   0.659525   0.000000  -0.309155
   28  C  2  Z    0.000000   0.000000   0.000000  -0.920335   0.000000
   29  C  2  S    2.075456   2.931309   1.770554   0.000000   1.363849
   30  C  2  X   -1.613301  -2.165691  -0.064927   0.000000  -0.284530
   31  C  2  Y   -0.452443   0.949334  -0.575514   0.000000   0.836139
   32  C  2  Z    0.000000   0.000000   0.000000   1.060801   0.000000
   33  C  2 XX   -0.036095   0.017258  -0.134758   0.000000  -0.273831
   34  C  2 YY   -0.008118  -0.028021  -0.164270   0.000000  -0.239189
   35  C  2 ZZ   -0.035002   0.000510  -0.147064   0.000000  -0.200494
   36  C  2 XY   -0.007001  -0.014549  -0.046416   0.000000   0.005237
   37  C  2 XZ    0.000000   0.000000   0.000000   0.056086   0.000000
   38  C  2 YZ    0.000000   0.000000   0.000000  -0.006982   0.000000
   39  H  3  S    0.091320  -0.068832  -0.026292   0.000000   0.018473
   40  H  3  S    0.830378  -1.381134  -0.359097   0.000000  -0.240772
   41  H  3  S   -1.049806   0.097118   0.162609   0.000000  -0.838978

                     16         17         18         19         20
                    0.7249     0.8544     0.8613     0.9354     1.1676
                     A'         A''        A'         A'         A'  
    1  N  1  S    0.030107   0.000000   0.009410   0.021244   0.092521
    2  N  1  S    0.047987   0.000000   0.011323   0.010679   0.120356
    3  N  1  X    0.015148   0.000000  -0.003491   0.241178  -0.141016
    4  N  1  Y    0.014120   0.000000  -0.226828  -0.009470   0.017896
    5  N  1  Z    0.000000  -0.225797   0.000000   0.000000   0.000000
    6  N  1  S   -0.156043   0.000000  -0.138459  -0.550322  -1.574329
    7  N  1  X    0.152222   0.000000  -0.005205   0.697293  -0.268865
    8  N  1  Y    0.008695   0.000000  -0.900666  -0.010636   0.074712
    9  N  1  Z    0.000000  -0.868698   0.000000   0.000000   0.000000
   10  N  1  S   -1.167830   0.000000   0.128251   2.155143   5.756777
   11  N  1  X   -1.389512   0.000000  -0.006559   0.242677   2.254708
   12  N  1  Y   -0.012867   0.000000   1.473076  -0.005407  -0.142443
   13  N  1  Z    0.000000   1.447230   0.000000   0.000000   0.000000
   14  N  1 XX   -0.016259   0.000000  -0.018657  -0.195413  -0.173088
   15  N  1 YY   -0.021733   0.000000  -0.044718  -0.091725  -0.288077
   16  N  1 ZZ   -0.019626   0.000000  -0.015764  -0.103793  -0.281036
   17  N  1 XY   -0.024070   0.000000  -0.024105   0.008703   0.004827
   18  N  1 XZ    0.000000  -0.014406   0.000000   0.000000   0.000000
   19  N  1 YZ    0.000000  -0.000445   0.000000   0.000000   0.000000
   20  C  2  S    0.027497   0.000000   0.010785   0.042592  -0.034993
   21  C  2  S    0.029333   0.000000   0.011495   0.065916  -0.061587
   22  C  2  X   -0.128368   0.000000  -0.025741   0.198767  -0.140359
   23  C  2  Y   -0.163119   0.000000   0.074388  -0.012765   0.004293
   24  C  2  Z    0.000000   0.101637   0.000000   0.000000   0.000000
   25  C  2  S   -0.395007   0.000000  -0.238971  -0.474839   0.223592
   26  C  2  X   -0.637150   0.000000  -0.077108   0.756046   0.052037
   27  C  2  Y   -0.707852   0.000000   0.164401  -0.092747   0.070457
   28  C  2  Z    0.000000   0.268914   0.000000   0.000000   0.000000
   29  C  2  S    2.936160   0.000000   0.705920  -0.664400  -4.278800
   30  C  2  X   -0.293410   0.000000  -0.049559   0.295331   2.290714
   31  C  2  Y    1.197414   0.000000  -0.367598   0.171289  -0.042694
   32  C  2  Z    0.000000  -0.801561   0.000000   0.000000   0.000000
   33  C  2 XX   -0.090113   0.000000  -0.065134   0.054650  -0.268946
   34  C  2 YY   -0.100807   0.000000  -0.049191  -0.151548   0.164122
   35  C  2 ZZ   -0.096333   0.000000  -0.015519  -0.129713   0.161367
   36  C  2 XY    0.015725   0.000000   0.092288   0.015671  -0.046994
   37  C  2 XZ    0.000000   0.085297   0.000000   0.000000   0.000000
   38  C  2 YZ    0.000000   0.009657   0.000000   0.000000   0.000000
   39  H  3  S    0.054169   0.000000   0.040789  -0.010532   0.070610
   40  H  3  S    0.319432   0.000000  -0.286082   0.218528  -0.363891
   41  H  3  S   -1.439564   0.000000  -0.385887  -0.413562   0.461549

                     21         22         23         24         25
                    1.4846     1.5715     1.6141     1.7338     2.1585
                     A''        A'         A''        A'         A'  
    1  N  1  S    0.000000   0.002427   0.000000   0.005491   0.032215
    2  N  1  S    0.000000   0.003664   0.000000   0.008540   0.043744
    3  N  1  X    0.000000   0.000509   0.000000  -0.007691  -0.105057
    4  N  1  Y    0.000000   0.076850   0.000000   0.049546  -0.015404
    5  N  1  Z   -0.004434   0.000000   0.090226   0.000000   0.000000
    6  N  1  S    0.000000  -0.037259   0.000000  -0.046389  -0.633950
    7  N  1  X    0.000000   0.030112   0.000000   0.003498  -0.716414
    8  N  1  Y    0.000000   0.200641   0.000000   0.140517  -0.027438
    9  N  1  Z   -0.012293   0.000000   0.243863   0.000000   0.000000
   10  N  1  S    0.000000   0.142505   0.000000   0.633844  -0.127834
   11  N  1  X    0.000000   0.059093   0.000000   0.083349   0.362241
   12  N  1  Y    0.000000   0.140385   0.000000  -0.123197   0.041301
   13  N  1  Z   -0.017171   0.000000   0.124640   0.000000   0.000000
   14  N  1 XX    0.000000   0.005663   0.000000   0.026752   0.114602
   15  N  1 YY    0.000000   0.079204   0.000000  -0.104380  -0.183839
   16  N  1 ZZ    0.000000  -0.090043   0.000000   0.062013  -0.297643
   17  N  1 XY    0.000000  -0.242314   0.000000  -0.116181   0.037634
   18  N  1 XZ    0.011643   0.000000  -0.280729   0.000000   0.000000
   19  N  1 YZ    0.212867   0.000000   0.012026   0.000000   0.000000
   20  C  2  S    0.000000   0.001574   0.000000  -0.010951  -0.033484
   21  C  2  S    0.000000   0.000912   0.000000  -0.027638  -0.100083
   22  C  2  X    0.000000  -0.020902   0.000000  -0.038287  -0.367698
   23  C  2  Y    0.000000   0.037066   0.000000   0.041333   0.017246
   24  C  2  Z   -0.022541   0.000000   0.043624   0.000000   0.000000
   25  C  2  S    0.000000  -0.055244   0.000000   0.242685   0.094606
   26  C  2  X    0.000000   0.036061   0.000000   0.059866   0.066297
   27  C  2  Y    0.000000   0.089842   0.000000  -0.059653  -0.069783
   28  C  2  Z   -0.006947   0.000000   0.120674   0.000000   0.000000
   29  C  2  S    0.000000   0.041343   0.000000  -1.104487   0.856689
   30  C  2  X    0.000000   0.015423   0.000000   0.547546  -0.616813
   31  C  2  Y    0.000000  -0.111616   0.000000  -0.599029   0.146975
   32  C  2  Z    0.010026   0.000000  -0.202731   0.000000   0.000000
   33  C  2 XX    0.000000  -0.068781   0.000000  -0.008276   0.967681
   34  C  2 YY    0.000000   0.435522   0.000000  -0.846740  -0.667884
   35  C  2 ZZ    0.000000  -0.414122   0.000000   0.758691  -0.808781
   36  C  2 XY    0.000000   0.770247   0.000000   0.483784  -0.015897
   37  C  2 XZ   -0.061881   0.000000   0.897238   0.000000   0.000000
   38  C  2 YZ    0.947361   0.000000   0.062118   0.000000   0.000000
   39  H  3  S    0.000000  -0.066862   0.000000  -0.379008  -0.171742
   40  H  3  S    0.000000  -0.015633   0.000000   1.606393   0.200092
   41  H  3  S    0.000000  -0.075578   0.000000  -0.247873  -0.350367

                     26         27         28         29         30
                    2.2856     2.3034     2.4961     2.7613     2.7624
                     A'         A''        A'         A'         A'' 
    1  N  1  S    0.002559   0.000000   0.006386  -0.001045   0.000000
    2  N  1  S    0.010083   0.000000   0.020132  -0.002562   0.000000
    3  N  1  X   -0.005516   0.000000  -0.009328  -0.013892   0.000000
    4  N  1  Y   -0.030738   0.000000  -0.020376   0.060329   0.000000
    5  N  1  Z    0.000000  -0.005297   0.000000   0.000000   0.046050
    6  N  1  S    0.014637   0.000000   0.006452   0.009428   0.000000
    7  N  1  X    0.111197   0.000000   0.251511  -0.005209   0.000000
    8  N  1  Y   -0.050510   0.000000  -0.079985   0.008267   0.000000
    9  N  1  Z    0.000000   0.002837   0.000000   0.000000  -0.007817
   10  N  1  S   -0.075424   0.000000   0.324332   0.032045   0.000000
   11  N  1  X   -0.071319   0.000000  -0.000664   0.053889   0.000000
   12  N  1  Y    0.052664   0.000000   0.063484   0.362206   0.000000
   13  N  1  Z    0.000000   0.001313   0.000000   0.000000   0.373994
   14  N  1 XX    0.008681   0.000000   0.080617  -0.008627   0.000000
   15  N  1 YY    0.857884   0.000000  -0.270103   0.011988   0.000000
   16  N  1 ZZ   -0.767488   0.000000   0.356710  -0.010540   0.000000
   17  N  1 XY    0.115648   0.000000   0.305533   0.905921   0.000000
   18  N  1 XZ    0.000000   0.012688   0.000000   0.000000   0.892157
   19  N  1 YZ    0.000000   0.985694   0.000000   0.000000  -0.007750
   20  C  2  S   -0.002837   0.000000  -0.018499  -0.007179   0.000000
   21  C  2  S   -0.013972   0.000000  -0.074912  -0.023170   0.000000
   22  C  2  X   -0.021255   0.000000  -0.120864   0.048683   0.000000
   23  C  2  Y    0.108644   0.000000   0.311503  -0.687446   0.000000
   24  C  2  Z    0.000000   0.006278   0.000000   0.000000  -0.715609
   25  C  2  S   -0.042554   0.000000   0.088461   0.140417   0.000000
   26  C  2  X    0.067632   0.000000   0.316492  -0.063217   0.000000
   27  C  2  Y   -0.167273   0.000000  -0.526815   0.535705   0.000000
   28  C  2  Z    0.000000  -0.005728   0.000000   0.000000   0.514701
   29  C  2  S    0.333791   0.000000   0.116243  -0.192981   0.000000
   30  C  2  X   -0.062145   0.000000   0.151616   0.052843   0.000000
   31  C  2  Y    0.180357   0.000000   0.110029  -0.527464   0.000000
   32  C  2  Z    0.000000   0.000864   0.000000   0.000000  -0.478355
   33  C  2 XX   -0.224327   0.000000  -0.532677  -0.030943   0.000000
   34  C  2 YY   -0.075193   0.000000   0.184285  -0.035229   0.000000
   35  C  2 ZZ    0.131908   0.000000  -0.334476  -0.022876   0.000000
   36  C  2 XY   -0.058179   0.000000   0.025088   0.669546   0.000000
   37  C  2 XZ    0.000000   0.011208   0.000000   0.000000   0.655474
   38  C  2 YZ    0.000000  -0.339412   0.000000   0.000000   0.000419
   39  H  3  S   -0.416083   0.000000  -1.257454   0.180865   0.000000
   40  H  3  S    0.296994   0.000000   1.624211  -0.319547   0.000000
   41  H  3  S   -0.284410   0.000000  -0.797082   0.304708   0.000000

                     31         32         33         34         35
                    3.0258     3.0934     3.1281     3.3069     3.6262
                     A'         A''        A'         A'         A'  
    1  N  1  S   -0.006991   0.000000  -0.011834  -0.009610  -0.032132
    2  N  1  S   -0.019424   0.000000  -0.030277  -0.007960  -0.054974
    3  N  1  X    0.102433   0.000000   0.366957   0.198467   0.178258
    4  N  1  Y   -0.066005   0.000000   0.088424  -0.160196   0.156988
    5  N  1  Z    0.000000  -0.169933   0.000000   0.000000   0.000000
    6  N  1  S    0.085333   0.000000  -0.066885   0.160238   0.776437
    7  N  1  X    0.126521   0.000000   0.059494   0.553845   1.171753
    8  N  1  Y   -0.002028   0.000000  -0.002197   0.001003  -0.079663
    9  N  1  Z    0.000000  -0.001543   0.000000   0.000000   0.000000
   10  N  1  S    0.352336   0.000000   2.157237   1.856612   1.238769
   11  N  1  X    0.259070   0.000000   1.148882   0.986764   0.721647
   12  N  1  Y   -0.012379   0.000000   0.066620  -0.177089   0.120149
   13  N  1  Z    0.000000  -0.182564   0.000000   0.000000   0.000000
   14  N  1 XX    0.354916   0.000000   1.026373   0.755537   0.649378
   15  N  1 YY   -0.178668   0.000000  -0.560313  -0.250396  -0.079937
   16  N  1 ZZ   -0.208337   0.000000  -0.581783  -0.230453  -0.123134
   17  N  1 XY   -0.179276   0.000000   0.265693  -0.477451   0.180922
   18  N  1 XZ    0.000000  -0.693846   0.000000   0.000000   0.000000
   19  N  1 YZ    0.000000   0.006278   0.000000   0.000000   0.000000
   20  C  2  S   -0.125706   0.000000   0.071397   0.038004  -0.070463
   21  C  2  S   -0.488982   0.000000   0.224611   0.102569  -0.319626
   22  C  2  X    0.683636   0.000000   0.311943  -0.481458  -1.038550
   23  C  2  Y   -0.201728   0.000000   0.437058  -0.928098   0.349697
   24  C  2  Z    0.000000  -1.111313   0.000000   0.000000   0.000000
   25  C  2  S    1.475799   0.000000  -1.241968  -0.679092   0.782884
   26  C  2  X   -0.356984   0.000000   0.603976   1.533723   2.490974
   27  C  2  Y    0.214841   0.000000  -0.525413   1.205353  -0.452478
   28  C  2  Z    0.000000   1.391377   0.000000   0.000000   0.000000
   29  C  2  S    1.045579   0.000000  -1.675673  -1.836951  -0.218868
   30  C  2  X    0.216885   0.000000   0.712695   0.512024  -0.007714
   31  C  2  Y    0.127232   0.000000   0.122355  -0.521637   0.237287
   32  C  2  Z    0.000000  -0.384531   0.000000   0.000000   0.000000
   33  C  2 XX   -1.378432   0.000000  -0.234597  -0.742865  -2.106789
   34  C  2 YY   -1.059731   0.000000   0.515422   0.475799  -0.595498
   35  C  2 ZZ   -1.130734   0.000000   0.543554   0.336964  -0.460961
   36  C  2 XY   -0.133255   0.000000   0.179925  -0.377857   0.158364
   37  C  2 XZ    0.000000  -0.442860   0.000000   0.000000   0.000000
   38  C  2 YZ    0.000000  -0.012596   0.000000   0.000000   0.000000
   39  H  3  S   -0.058060   0.000000   0.124546  -0.496736   0.582386
   40  H  3  S    0.043046   0.000000  -0.153039   0.326291  -0.506308
   41  H  3  S   -0.353207   0.000000   0.122923   0.309187  -0.065499

                     36         37         38         39         40
                    4.1746     4.1954     4.3796     5.4769    27.3665
                     A''        A'         A'         A'         A'  
    1  N  1  S    0.000000  -0.005616  -0.138758   0.105750   0.000709
    2  N  1  S    0.000000  -0.015598  -0.497769   0.439886   0.001197
    3  N  1  X    0.000000   0.013059  -0.810199  -1.067875  -0.016721
    4  N  1  Y    0.000000  -1.284561   0.017058  -0.013133  -0.002781
    5  N  1  Z   -1.291990   0.000000   0.000000   0.000000   0.000000
    6  N  1  S    0.000000   0.099230   1.747097  -0.931735  -0.075586
    7  N  1  X    0.000000   0.075192   1.289273   2.863284  -0.055629
    8  N  1  Y    0.000000   1.532326  -0.027881   0.036994   0.006548
    9  N  1  Z    1.506865   0.000000   0.000000   0.000000   0.000000
   10  N  1  S    0.000000   0.218030   2.588857  -0.334979   0.063459
   11  N  1  X    0.000000   0.102633   0.480408  -0.226350  -0.012905
   12  N  1  Y    0.000000  -0.623567   0.008868  -0.006899  -0.019851
   13  N  1  Z   -0.601688   0.000000   0.000000   0.000000   0.000000
   14  N  1 XX    0.000000   0.018938  -0.632122   2.362366   0.007602
   15  N  1 YY    0.000000  -0.038697  -1.272273   0.862439  -0.013393
   16  N  1 ZZ    0.000000  -0.020194  -1.275695   0.860923  -0.009576
   17  N  1 XY    0.000000   0.193312  -0.010993   0.019266  -0.004449
   18  N  1 XZ    0.166234   0.000000   0.000000   0.000000   0.000000
   19  N  1 YZ   -0.003867   0.000000   0.000000   0.000000   0.000000
   20  C  2  S    0.000000  -0.001914   0.012420   0.017849  -2.107829
   21  C  2  S    0.000000  -0.009076   0.017703   0.001061   2.539110
   22  C  2  X    0.000000  -0.080540  -0.034504  -0.117276   0.031944
   23  C  2  Y    0.000000   0.188139  -0.002606   0.042147  -0.015569
   24  C  2  Z    0.146954   0.000000   0.000000   0.000000   0.000000
   25  C  2  S    0.000000   0.077574  -0.346055  -0.633351  -1.122523
   26  C  2  X    0.000000   0.181220   0.716101   2.299713  -0.093842
   27  C  2  Y    0.000000  -0.347246  -0.004674  -0.054958   0.041566
   28  C  2  Z   -0.315144   0.000000   0.000000   0.000000   0.000000
   29  C  2  S    0.000000  -0.371801  -1.260584   0.219530  -0.487503
   30  C  2  X    0.000000   0.103287   0.680849  -0.222833   0.065878
   31  C  2  Y    0.000000   0.136137   0.020114   0.016794  -0.077728
   32  C  2  Z    0.227424   0.000000   0.000000   0.000000   0.000000
   33  C  2 XX    0.000000  -0.099616  -0.491220  -1.849605   0.618502
   34  C  2 YY    0.000000  -0.038962   0.108019   0.094254   0.562878
   35  C  2 ZZ    0.000000   0.054902   0.099800   0.144836   0.559948
   36  C  2 XY    0.000000   0.290808  -0.013107   0.035729  -0.006252
   37  C  2 XZ    0.237308   0.000000   0.000000   0.000000   0.000000
   38  C  2 YZ    0.002592   0.000000   0.000000   0.000000   0.000000
   39  H  3  S    0.000000   0.224663  -0.056645   0.206943  -0.037723
   40  H  3  S    0.000000  -0.134308   0.075598  -0.160022   0.010500
   41  H  3  S    0.000000   0.209147  -0.081053   0.049080   0.146728

                     41
                   40.7013
                     A'  
    1  N  1  S   -2.222900
    2  N  1  S    2.628691
    3  N  1  X   -0.057210
    4  N  1  Y   -0.001405
    5  N  1  Z    0.000000
    6  N  1  S   -0.993614
    7  N  1  X    0.259112
    8  N  1  Y    0.005074
    9  N  1  Z    0.000000
   10  N  1  S   -0.654001
   11  N  1  X   -0.175068
   12  N  1  Y   -0.002172
   13  N  1  Z    0.000000
   14  N  1 XX    0.689880
   15  N  1 YY    0.565888
   16  N  1 ZZ    0.565093
   17  N  1 XY    0.002261
   18  N  1 XZ    0.000000
   19  N  1 YZ    0.000000
   20  C  2  S   -0.002400
   21  C  2  S    0.004217
   22  C  2  X   -0.005021
   23  C  2  Y    0.002340
   24  C  2  Z    0.000000
   25  C  2  S   -0.058946
   26  C  2  X    0.230243
   27  C  2  Y   -0.001778
   28  C  2  Z    0.000000
   29  C  2  S    0.332402
   30  C  2  X   -0.199030
   31  C  2  Y   -0.004845
   32  C  2  Z    0.000000
   33  C  2 XX   -0.191869
   34  C  2 YY    0.005927
   35  C  2 ZZ    0.012304
   36  C  2 XY    0.004211
   37  C  2 XZ    0.000000
   38  C  2 YZ    0.000000
   39  H  3  S    0.029042
   40  H  3  S   -0.024166
   41  H  3  S    0.019897
 ...... END OF RHF CALCULATION ......
 CPU     0: STEP CPU TIME=     0.03 TOTAL CPU TIME=          0.1 (      0.0 MIN)
 TOTAL WALL CLOCK TIME=          0.1 SECONDS, CPU UTILIZATION IS   115.74%

     ----------------------------------------------------------------
     PROPERTY VALUES FOR THE RHF   SELF-CONSISTENT FIELD WAVEFUNCTION
     ----------------------------------------------------------------

          -----------------
          ENERGY COMPONENTS
          -----------------

         WAVEFUNCTION NORMALIZATION =       1.0000000000

                ONE ELECTRON ENERGY =    -171.2510014412
                TWO ELECTRON ENERGY =      55.0245266780
           NUCLEAR REPULSION ENERGY =      23.4154954113
                                      ------------------
                       TOTAL ENERGY =     -92.8109793519

 ELECTRON-ELECTRON POTENTIAL ENERGY =      55.0245266780
  NUCLEUS-ELECTRON POTENTIAL ENERGY =    -263.8088850341
   NUCLEUS-NUCLEUS POTENTIAL ENERGY =      23.4154954113
                                      ------------------
             TOTAL POTENTIAL ENERGY =    -185.3688629448
               TOTAL KINETIC ENERGY =      92.5578835929
                 VIRIAL RATIO (V/T) =       2.0027344592

  ...... PI ENERGY ANALYSIS ......

 ENERGY ANALYSIS:
            FOCK ENERGY=    -61.2019474503
          BARE H ENERGY=   -171.2510014412
     ELECTRONIC ENERGY =   -116.2264744458
         KINETIC ENERGY=     92.5578835929
          N-N REPULSION=     23.4154954113
           TOTAL ENERGY=    -92.8109790344
        SIGMA PART(1+2)=   -108.4300302190
               (K,V1,2)=     89.7216717737   -246.4241435847     48.2724415920
           PI PART(1+2)=     -7.7964442268
               (K,V1,2)=      2.8362118191    -17.3847414494      6.7520854035
  SIGMA SKELETON, ERROR=    -85.0145348077     -0.0000000000
             MIXED PART= 0.00000E+00 0.00000E+00 0.00000E+00 0.00000E+00
 ...... END OF PI ENERGY ANALYSIS ......

          ---------------------------------------
          MULLIKEN AND LOWDIN POPULATION ANALYSES
          ---------------------------------------

     ATOMIC MULLIKEN POPULATION IN EACH MOLECULAR ORBITAL

                      1          2          3          4          5

                  2.000000   2.000000   2.000000   2.000000   2.000000

    1             1.999780   0.000344   1.274362   1.109789   1.040484
    2             0.000219   1.999700   0.652900   0.649426   0.577191
    3             0.000000  -0.000044   0.072738   0.240785   0.382324

                      6          7

                  2.000000   2.000000

    1             1.338268   0.399016
    2             0.661732   1.583368
    3             0.000000   0.017616

               ----- POPULATIONS IN EACH AO -----
                             MULLIKEN      LOWDIN
              1  N  1  S      1.09552     1.04197
              2  N  1  S      0.89895     0.92233
              3  N  1  X      0.31904     0.31938
              4  N  1  Y      0.10474     0.10347
              5  N  1  Z      0.23937     0.24184
              6  N  1  S      0.96086     0.56522
              7  N  1  X      0.68844     0.68467
              8  N  1  Y      0.29012     0.26537
              9  N  1  Z      0.57309     0.54686
             10  N  1  S      0.85647     0.45480
             11  N  1  X      0.30385     0.43768
             12  N  1  Y      0.27543     0.30596
             13  N  1  Z      0.51529     0.49512
             14  N  1 XX      0.02586     0.22000
             15  N  1 YY     -0.00213     0.19055
             16  N  1 ZZ     -0.00633     0.19063
             17  N  1 XY      0.01294     0.01677
             18  N  1 XZ      0.01048     0.01020
             19  N  1 YZ      0.00005     0.00005
             20  C  2  S      1.10475     1.05048
             21  C  2  S      0.88842     0.91211
             22  C  2  X      0.27625     0.27875
             23  C  2  Y      0.12729     0.12755
             24  C  2  Z      0.10563     0.10546
             25  C  2  S      0.85523     0.50068
             26  C  2  X      0.57004     0.59544
             27  C  2  Y      0.38855     0.35103
             28  C  2  Z      0.29679     0.28665
             29  C  2  S      0.85206     0.47488
             30  C  2  X      0.12104     0.33863
             31  C  2  Y      0.18723     0.27959
             32  C  2  Z      0.22627     0.26701
             33  C  2 XX      0.03091     0.22106
             34  C  2 YY      0.04064     0.20607
             35  C  2 ZZ     -0.00725     0.16423
             36  C  2 XY      0.02764     0.03483
             37  C  2 XZ      0.03276     0.04654
             38  C  2 YZ      0.00027     0.00027
             39  H  3  S      0.20540     0.19900
             40  H  3  S      0.41947     0.33847
             41  H  3  S      0.08855     0.20841

          ----- MULLIKEN ATOMIC OVERLAP POPULATIONS -----
          (OFF-DIAGONAL ELEMENTS NEED TO BE MULTIPLIED BY 2)

             1           2           3

    1    6.6438357
    2    0.4423977   5.4748299
    3    0.0758099   0.2073092   0.4303007

          TOTAL MULLIKEN AND LOWDIN ATOMIC POPULATIONS
       ATOM         MULL.POP.    CHARGE          LOW.POP.     CHARGE
    1 N             7.162043   -0.162043         7.012867   -0.012867
    2 C             6.124537   -0.124537         6.241253   -0.241253
    3 H             0.713420    0.286580         0.745880    0.254120

          -------------------------------
          BOND ORDER AND VALENCE ANALYSIS     BOND ORDER THRESHOLD=0.050
          -------------------------------

                   BOND                       BOND                       BOND
  ATOM PAIR DIST  ORDER      ATOM PAIR DIST  ORDER      ATOM PAIR DIST  ORDER
    1   2  1.221  2.199        1   3  1.438  0.356        2   3  1.202  0.574

                       TOTAL       BONDED        FREE
      ATOM            VALENCE     VALENCE     VALENCE
    1 N                 2.555       2.555      -0.000
    2 C                 2.773       2.773      -0.000
    3 H                 0.930       0.930       0.000

          ---------------------
          ELECTROSTATIC MOMENTS
          ---------------------

 POINT   1           X           Y           Z (BOHR)    CHARGE
                 1.085558    0.080925    0.000000       -0.00 (A.U.)
         DX          DY          DZ         /D/  (DEBYE)
     0.111785    1.376927    0.000000    1.381457
 ...... END OF PROPERTY EVALUATION ......
 CPU     0: STEP CPU TIME=     0.00 TOTAL CPU TIME=          0.1 (      0.0 MIN)
 TOTAL WALL CLOCK TIME=          0.1 SECONDS, CPU UTILIZATION IS   109.65%

 BEGINNING ONE ELECTRON GRADIENT...
 ..... END OF 1-ELECTRON GRADIENT ......
 CPU     0: STEP CPU TIME=     0.00 TOTAL CPU TIME=          0.1 (      0.0 MIN)
 TOTAL WALL CLOCK TIME=          0.1 SECONDS, CPU UTILIZATION IS   105.93%

          ----------------------
          GRADIENT OF THE ENERGY
          ----------------------

 THE MINIMUM MEMORY REQUIRED FOR THIS RUN IS      75695 WORDS.
 USING     990245 WORDS FOR 2E- DERIVATIVE INTEGRAL CONTRIBUTIONS.
 THE COARSE/FINE SCHWARZ SCREENINGS SKIPPED            0/           0 BLOCKS.
 THE NUMBER OF GRADIENT INTEGRAL BLOCKS COMPUTED WAS      3925
 ...... END OF 2-ELECTRON GRADIENT ......
 CPU     0: STEP CPU TIME=     0.02 TOTAL CPU TIME=          0.1 (      0.0 MIN)
 TOTAL WALL CLOCK TIME=          0.1 SECONDS, CPU UTILIZATION IS    98.89%

          NSERCH=  0     ENERGY=     -92.8109794

                                 -----------------------
                                 GRADIENT (HARTREE/BOHR)
                                 -----------------------
        ATOM     ZNUC       DE/DX         DE/DY         DE/DZ
 --------------------------------------------------------------
    1  N            7.0    -0.1089341    -0.0106030     0.0000000
    2  C            6.0     0.1010648    -0.0006008     0.0000000
    3  H            1.0     0.0078692     0.0112038     0.0000000

          MAXIMUM GRADIENT = 0.1089341    RMS GRADIENT = 0.0498676

 NSERCH:   0  E=      -92.8109793519  GRAD. MAX=  0.1089341  R.M.S.=  0.0498676

          FORCE CONSTANT MATRIX NOT UPDATED --- TAKING FIRST STEP
          MIN SEARCH, CORRECT HESSIAN, TRYING PURE NR STEP
               NR STEP HAS LENGTH         =   0.127246
          RADIUS OF STEP TAKEN=   0.12725  CURRENT TRUST RADIUS=   0.30000

 BEGINNING GEOMETRY SEARCH POINT NSERCH=   1 ...

 COORDINATES OF SYMMETRY UNIQUE ATOMS (ANGS)
   ATOM   CHARGE       X              Y              Z
 ------------------------------------------------------------
 N           7.0   0.0505134009   0.0104226920   0.0000000000
 C           6.0   1.1804213064  -0.0094798632   0.0000000000
 H           1.0   0.8549527037   1.1468817648   0.0000000000
 COORDINATES OF ALL ATOMS ARE (ANGS)
   ATOM   CHARGE       X              Y              Z
 ------------------------------------------------------------
 N           7.0   0.0505134009   0.0104226920   0.0000000000
 C           6.0   1.1804213064  -0.0094798632   0.0000000000
 H           1.0   0.8549527037   1.1468817648   0.0000000000

          INTERNUCLEAR DISTANCES (ANGS.)
          ------------------------------

                1 N          2 C          3 H     

   1 N       0.0000000    1.1300832 *  1.3923584 *
   2 C       1.1300832 *  0.0000000    1.2012918 *
   3 H       1.3923584 *  1.2012918 *  0.0000000  

  * ... LESS THAN  3.000

 ...... END OF ONE-ELECTRON INTEGRALS ......
 CPU     0: STEP CPU TIME=     0.02 TOTAL CPU TIME=          0.1 (      0.0 MIN)
 TOTAL WALL CLOCK TIME=          0.1 SECONDS, CPU UTILIZATION IS   117.19%
 TOTAL NUMBER OF NONZERO TWO-ELECTRON INTEGRALS =              186513
         13 INTEGRAL RECORDS WERE STORED ON DISK FILE  8.
  ...... END OF TWO-ELECTRON INTEGRALS .....
 CPU     0: STEP CPU TIME=     0.00 TOTAL CPU TIME=          0.1 (      0.0 MIN)
 TOTAL WALL CLOCK TIME=          0.1 SECONDS, CPU UTILIZATION IS   103.02%

          --------------------------
                 RHF SCF CALCULATION
          --------------------------
     DENSITY MATRIX CONV=  2.00E-04

 ITER EX DEM     TOTAL ENERGY        E CHANGE  DENSITY CHANGE     ORB. GRAD
          ---------------START SECOND ORDER SCF---------------
   1  0  0      -92.8075654841   -92.8075654841   0.027156194   0.027155451
   2  1  0      -92.8133106273    -0.0057451432   0.024462047   0.007280093
   3  2  0      -92.8139394908    -0.0006288635   0.009452242   0.003600543
   4  3  0      -92.8140349883    -0.0000954975   0.004987790   0.002046946
   5  4  0      -92.8140639214    -0.0000289331   0.001367804   0.000577913
   6  5  0      -92.8140673226    -0.0000034012   0.000333754   0.000117480
   7  6  0      -92.8140675814    -0.0000002588   0.000259478   0.000051264
   8  7  0      -92.8140676100    -0.0000000286   0.000086766   0.000011943
   9  8  0      -92.8140676124    -0.0000000024   0.000014696   0.000003553

          -----------------
          DENSITY CONVERGED
          -----------------
     TIME TO FORM FOCK OPERATORS=       0.0 SECONDS (       0.0 SEC/ITER)
     TIME TO SOLVE SCF EQUATIONS=       0.0 SECONDS (       0.0 SEC/ITER)

 FINAL RHF ENERGY IS      -92.8140676124 AFTER   9 ITERATIONS
 ...... END OF RHF CALCULATION ......
 CPU     0: STEP CPU TIME=     0.02 TOTAL CPU TIME=          0.1 (      0.0 MIN)
 TOTAL WALL CLOCK TIME=          0.1 SECONDS, CPU UTILIZATION IS   103.18%
 ..... END OF 1-ELECTRON GRADIENT ......
 CPU     0: STEP CPU TIME=     0.00 TOTAL CPU TIME=          0.1 (      0.0 MIN)
 TOTAL WALL CLOCK TIME=          0.1 SECONDS, CPU UTILIZATION IS   100.34%
 ...... END OF 2-ELECTRON GRADIENT ......
 CPU     0: STEP CPU TIME=     0.03 TOTAL CPU TIME=          0.1 (      0.0 MIN)
 TOTAL WALL CLOCK TIME=          0.1 SECONDS, CPU UTILIZATION IS   103.40%

          NSERCH=  1     ENERGY=     -92.8140676

                                 -----------------------
                                 GRADIENT (HARTREE/BOHR)
                                 -----------------------
        ATOM     ZNUC       DE/DX         DE/DY         DE/DZ
 --------------------------------------------------------------
    1  N            7.0     0.0908728    -0.0116512     0.0000000
    2  C            6.0    -0.0965248    -0.0031480     0.0000000
    3  H            1.0     0.0056519     0.0147992     0.0000000

          MAXIMUM GRADIENT = 0.0965248    RMS GRADIENT = 0.0446860

 NSERCH:   1  E=      -92.8140676124  GRAD. MAX=  0.0965248  R.M.S.=  0.0446860

          HESSIAN UPDATED USING THE BFGS FORMULA
             ACTUAL ENERGY CHANGE WAS  -0.0030882605
          PREDICTED ENERGY CHANGE WAS  -0.0092966697 RATIO=  0.332
          MIN SEARCH, CORRECT HESSIAN, TRYING PURE NR STEP
               NR STEP HAS LENGTH         =   0.079796
          RADIUS OF STEP TAKEN=   0.07980  CURRENT TRUST RADIUS=   0.12725

 BEGINNING GEOMETRY SEARCH POINT NSERCH=   2 ...

 COORDINATES OF SYMMETRY UNIQUE ATOMS (ANGS)
   ATOM   CHARGE       X              Y              Z
 ------------------------------------------------------------
 N           7.0   0.0359478369   0.0289081118   0.0000000000
 C           6.0   1.2078126782  -0.0102503388   0.0000000000
 H           1.0   0.8421268960   1.1291668205   0.0000000000
 COORDINATES OF ALL ATOMS ARE (ANGS)
   ATOM   CHARGE       X              Y              Z
 ------------------------------------------------------------
 N           7.0   0.0359478369   0.0289081118   0.0000000000
 C           6.0   1.2078126782  -0.0102503388   0.0000000000
 H           1.0   0.8421268960   1.1291668205   0.0000000000

          INTERNUCLEAR DISTANCES (ANGS.)
          ------------------------------

                1 N          2 C          3 H     

   1 N       0.0000000    1.1725189 *  1.3639992 *
   2 C       1.1725189 *  0.0000000    1.1966610 *
   3 H       1.3639992 *  1.1966610 *  0.0000000  

  * ... LESS THAN  3.000

 ...... END OF ONE-ELECTRON INTEGRALS ......
 CPU     0: STEP CPU TIME=     0.00 TOTAL CPU TIME=          0.1 (      0.0 MIN)
 TOTAL WALL CLOCK TIME=          0.1 SECONDS, CPU UTILIZATION IS   102.65%
 TOTAL NUMBER OF NONZERO TWO-ELECTRON INTEGRALS =              186512
         14 INTEGRAL RECORDS WERE STORED ON DISK FILE  8.
  ...... END OF TWO-ELECTRON INTEGRALS .....
 CPU     0: STEP CPU TIME=     0.02 TOTAL CPU TIME=          0.2 (      0.0 MIN)
 TOTAL WALL CLOCK TIME=          0.2 SECONDS, CPU UTILIZATION IS   102.80%

          --------------------------
                 RHF SCF CALCULATION
          --------------------------
     DENSITY MATRIX CONV=  2.00E-04

 ITER EX DEM     TOTAL ENERGY        E CHANGE  DENSITY CHANGE     ORB. GRAD
          ---------------START SECOND ORDER SCF---------------
   1  0  0      -92.8163488502   -92.8163488502   0.017893339   0.014727256
   2  1  0      -92.8179802142    -0.0016313640   0.012884396   0.003064601
   3  2  0      -92.8182173922    -0.0002371779   0.003868964   0.001980341
   4  3  0      -92.8182510333    -0.0000336412   0.002013230   0.000855114
   5  4  0      -92.8182605554    -0.0000095221   0.000813914   0.000439021
   6  5  0      -92.8182618262    -0.0000012708   0.000411047   0.000094705
   7  6  0      -92.8182619782    -0.0000001520   0.000116222   0.000026067
   8  7  0      -92.8182619946    -0.0000000164   0.000035051   0.000010840

          -----------------
          DENSITY CONVERGED
          -----------------
     TIME TO FORM FOCK OPERATORS=       0.0 SECONDS (       0.0 SEC/ITER)
     TIME TO SOLVE SCF EQUATIONS=       0.0 SECONDS (       0.0 SEC/ITER)

 FINAL RHF ENERGY IS      -92.8182619946 AFTER   8 ITERATIONS
 ...... END OF RHF CALCULATION ......
 CPU     0: STEP CPU TIME=     0.02 TOTAL CPU TIME=          0.2 (      0.0 MIN)
 TOTAL WALL CLOCK TIME=          0.2 SECONDS, CPU UTILIZATION IS    99.93%
 ..... END OF 1-ELECTRON GRADIENT ......
 CPU     0: STEP CPU TIME=     0.02 TOTAL CPU TIME=          0.2 (      0.0 MIN)
 TOTAL WALL CLOCK TIME=          0.2 SECONDS, CPU UTILIZATION IS   107.76%
 ...... END OF 2-ELECTRON GRADIENT ......
 CPU     0: STEP CPU TIME=     0.02 TOTAL CPU TIME=          0.2 (      0.0 MIN)
 TOTAL WALL CLOCK TIME=          0.2 SECONDS, CPU UTILIZATION IS    97.19%

          NSERCH=  2     ENERGY=     -92.8182620

                                 -----------------------
                                 GRADIENT (HARTREE/BOHR)
                                 -----------------------
        ATOM     ZNUC       DE/DX         DE/DY         DE/DZ
 --------------------------------------------------------------
    1  N            7.0    -0.0172664    -0.0127949     0.0000000
    2  C            6.0     0.0052454     0.0074033     0.0000000
    3  H            1.0     0.0120210     0.0053915     0.0000000

          MAXIMUM GRADIENT = 0.0172664    RMS GRADIENT = 0.0089302

 NSERCH:   2  E=      -92.8182619946  GRAD. MAX=  0.0172664  R.M.S.=  0.0089302

          HESSIAN UPDATED USING THE BFGS FORMULA
             ACTUAL ENERGY CHANGE WAS  -0.0041943822
          PREDICTED ENERGY CHANGE WAS  -0.0042662166 RATIO=  0.983
          MIN SEARCH, CORRECT HESSIAN, TRYING PURE NR STEP
               NR STEP HAS LENGTH         =   0.111421
          RADIUS OF STEP TAKEN=   0.11142  CURRENT TRUST RADIUS=   0.15959

 BEGINNING GEOMETRY SEARCH POINT NSERCH=   3 ...

 COORDINATES OF SYMMETRY UNIQUE ATOMS (ANGS)
   ATOM   CHARGE       X              Y              Z
 ------------------------------------------------------------
 N           7.0   0.0496434281   0.0650967187   0.0000000000
 C           6.0   1.2257594811  -0.0275960819   0.0000000000
 H           1.0   0.8104845018   1.1103239568   0.0000000000
 COORDINATES OF ALL ATOMS ARE (ANGS)
   ATOM   CHARGE       X              Y              Z
 ------------------------------------------------------------
 N           7.0   0.0496434281   0.0650967187   0.0000000000
 C           6.0   1.2257594811  -0.0275960819   0.0000000000
 H           1.0   0.8104845018   1.1103239568   0.0000000000

          INTERNUCLEAR DISTANCES (ANGS.)
          ------------------------------

                1 N          2 C          3 H     

   1 N       0.0000000    1.1797631 *  1.2928183 *
   2 C       1.1797631 *  0.0000000    1.2113279 *
   3 H       1.2928183 *  1.2113279 *  0.0000000  

  * ... LESS THAN  3.000

 ...... END OF ONE-ELECTRON INTEGRALS ......
 CPU     0: STEP CPU TIME=     0.02 TOTAL CPU TIME=          0.2 (      0.0 MIN)
 TOTAL WALL CLOCK TIME=          0.2 SECONDS, CPU UTILIZATION IS    99.43%
 TOTAL NUMBER OF NONZERO TWO-ELECTRON INTEGRALS =              186514
         14 INTEGRAL RECORDS WERE STORED ON DISK FILE  8.
  ...... END OF TWO-ELECTRON INTEGRALS .....
 CPU     0: STEP CPU TIME=     0.00 TOTAL CPU TIME=          0.2 (      0.0 MIN)
 TOTAL WALL CLOCK TIME=          0.2 SECONDS, CPU UTILIZATION IS    95.52%

          --------------------------
                 RHF SCF CALCULATION
          --------------------------
     DENSITY MATRIX CONV=  5.00E-05

 ITER EX DEM     TOTAL ENERGY        E CHANGE  DENSITY CHANGE     ORB. GRAD
          ---------------START SECOND ORDER SCF---------------
   1  0  0      -92.8177145659   -92.8177145659   0.015553825   0.011950741
   2  1  0      -92.8203869556    -0.0026723897   0.014899599   0.005224486
   3  2  0      -92.8209310737    -0.0005441181   0.003948525   0.003528892
   4  3  0      -92.8210421510    -0.0001110773   0.001617517   0.000961801
   5  4  0      -92.8210576071    -0.0000154561   0.001070914   0.000409633
   6  5  0      -92.8210596649    -0.0000020577   0.000155298   0.000068692
   7  6  0      -92.8210597416    -0.0000000767   0.000087744   0.000025142
   8  7  0      -92.8210597543    -0.0000000128   0.000027812   0.000005473
   9  8  0      -92.8210597547    -0.0000000004   0.000006029   0.000001121

          -----------------
          DENSITY CONVERGED
          -----------------
     TIME TO FORM FOCK OPERATORS=       0.0 SECONDS (       0.0 SEC/ITER)
     TIME TO SOLVE SCF EQUATIONS=       0.0 SECONDS (       0.0 SEC/ITER)

 FINAL RHF ENERGY IS      -92.8210597547 AFTER   9 ITERATIONS
 ...... END OF RHF CALCULATION ......
 CPU     0: STEP CPU TIME=     0.02 TOTAL CPU TIME=          0.2 (      0.0 MIN)
 TOTAL WALL CLOCK TIME=          0.2 SECONDS, CPU UTILIZATION IS    95.27%
 ..... END OF 1-ELECTRON GRADIENT ......
 CPU     0: STEP CPU TIME=     0.00 TOTAL CPU TIME=          0.2 (      0.0 MIN)
 TOTAL WALL CLOCK TIME=          0.2 SECONDS, CPU UTILIZATION IS    94.89%
 ...... END OF 2-ELECTRON GRADIENT ......
 CPU     0: STEP CPU TIME=     0.03 TOTAL CPU TIME=          0.3 (      0.0 MIN)
 TOTAL WALL CLOCK TIME=          0.3 SECONDS, CPU UTILIZATION IS    98.75%

          NSERCH=  3     ENERGY=     -92.8210598

                                 -----------------------
                                 GRADIENT (HARTREE/BOHR)
                                 -----------------------
        ATOM     ZNUC       DE/DX         DE/DY         DE/DZ
 --------------------------------------------------------------
    1  N            7.0    -0.0327986    -0.0162041     0.0000000
    2  C            6.0     0.0136212     0.0155416     0.0000000
    3  H            1.0     0.0191775     0.0006625     0.0000000

          MAXIMUM GRADIENT = 0.0327986    RMS GRADIENT = 0.0153970

 NSERCH:   3  E=      -92.8210597547  GRAD. MAX=  0.0327986  R.M.S.=  0.0153970

          HESSIAN UPDATED USING THE BFGS FORMULA
          WARNING! HEREDITARY POSITIVE DEFINITENESS ENDANGERED
 LOCAL CURVATURE   1 OF THE APPROXIMATE HESSIAN HAS EIGENVALUE=   -0.097741
 *** THIS MODE HAS AN INCORRECT CURVATURE ***
 THE COMPONENTS OF THIS MODE FOLLOWS:
       -0.293998      -0.582497       0.000000      -0.264548       0.397668
        0.000000       0.558546       0.184829       0.000000
             ACTUAL ENERGY CHANGE WAS  -0.0027977601
          PREDICTED ENERGY CHANGE WAS  -0.0011487157 RATIO=  2.436
          TRIM/QA LAMBDA FOR NON-TS MODES =  -0.39203716
          TRIM/QA STEP HAS LENGTH         =   0.111421
          RADIUS OF STEP TAKEN=   0.11142  CURRENT TRUST RADIUS=   0.11142

 BEGINNING GEOMETRY SEARCH POINT NSERCH=   4 ...

 COORDINATES OF SYMMETRY UNIQUE ATOMS (ANGS)
   ATOM   CHARGE       X              Y              Z
 ------------------------------------------------------------
 N           7.0   0.0714326334   0.0977849042   0.0000000000
 C           6.0   1.2370233939  -0.0534141288   0.0000000000
 H           1.0   0.7774313837   1.1034538182   0.0000000000
 COORDINATES OF ALL ATOMS ARE (ANGS)
   ATOM   CHARGE       X              Y              Z
 ------------------------------------------------------------
 N           7.0   0.0714326334   0.0977849042   0.0000000000
 C           6.0   1.2370233939  -0.0534141288   0.0000000000
 H           1.0   0.7774313837   1.1034538182   0.0000000000

          INTERNUCLEAR DISTANCES (ANGS.)
          ------------------------------

                1 N          2 C          3 H     

   1 N       0.0000000    1.1753565 *  1.2287409 *
   2 C       1.1753565 *  0.0000000    1.2448166 *
   3 H       1.2287409 *  1.2448166 *  0.0000000  

  * ... LESS THAN  3.000

 ...... END OF ONE-ELECTRON INTEGRALS ......
 CPU     0: STEP CPU TIME=     0.00 TOTAL CPU TIME=          0.3 (      0.0 MIN)
 TOTAL WALL CLOCK TIME=          0.3 SECONDS, CPU UTILIZATION IS    98.38%
 TOTAL NUMBER OF NONZERO TWO-ELECTRON INTEGRALS =              186515
         14 INTEGRAL RECORDS WERE STORED ON DISK FILE  8.
  ...... END OF TWO-ELECTRON INTEGRALS .....
 CPU     0: STEP CPU TIME=     0.00 TOTAL CPU TIME=          0.3 (      0.0 MIN)
 TOTAL WALL CLOCK TIME=          0.3 SECONDS, CPU UTILIZATION IS    94.53%

          --------------------------
                 RHF SCF CALCULATION
          --------------------------
     DENSITY MATRIX CONV=  5.00E-05

 ITER EX DEM     TOTAL ENERGY        E CHANGE  DENSITY CHANGE     ORB. GRAD
          ---------------START SECOND ORDER SCF---------------
   1  0  0      -92.8214951930   -92.8214951930   0.012033990   0.014480698
   2  1  0      -92.8245960345    -0.0031008416   0.016517758   0.005661374
   3  2  0      -92.8252058228    -0.0006097883   0.004164451   0.004026756
   4  3  0      -92.8253397222    -0.0001338993   0.001245283   0.000964550
   5  4  0      -92.8253555760    -0.0000158538   0.000528952   0.000482038
   6  5  0      -92.8253574303    -0.0000018543   0.000161644   0.000099983
   7  6  0      -92.8253575185    -0.0000000882   0.000135704   0.000025945
   8  7  0      -92.8253575324    -0.0000000139   0.000047592   0.000007169
   9  8  0      -92.8253575333    -0.0000000009   0.000009965   0.000002922

          -----------------
          DENSITY CONVERGED
          -----------------
     TIME TO FORM FOCK OPERATORS=       0.0 SECONDS (       0.0 SEC/ITER)
     TIME TO SOLVE SCF EQUATIONS=       0.0 SECONDS (       0.0 SEC/ITER)

 FINAL RHF ENERGY IS      -92.8253575333 AFTER   9 ITERATIONS
 ...... END OF RHF CALCULATION ......
 CPU     0: STEP CPU TIME=     0.02 TOTAL CPU TIME=          0.3 (      0.0 MIN)
 TOTAL WALL CLOCK TIME=          0.3 SECONDS, CPU UTILIZATION IS    95.02%
 ..... END OF 1-ELECTRON GRADIENT ......
 CPU     0: STEP CPU TIME=     0.00 TOTAL CPU TIME=          0.3 (      0.0 MIN)
 TOTAL WALL CLOCK TIME=          0.3 SECONDS, CPU UTILIZATION IS    94.38%
 ...... END OF 2-ELECTRON GRADIENT ......
 CPU     0: STEP CPU TIME=     0.03 TOTAL CPU TIME=          0.3 (      0.0 MIN)
 TOTAL WALL CLOCK TIME=          0.3 SECONDS, CPU UTILIZATION IS    97.05%

          NSERCH=  4     ENERGY=     -92.8253575

                                 -----------------------
                                 GRADIENT (HARTREE/BOHR)
                                 -----------------------
        ATOM     ZNUC       DE/DX         DE/DY         DE/DZ
 --------------------------------------------------------------
    1  N            7.0    -0.0216759    -0.0202271     0.0000000
    2  C            6.0    -0.0009085     0.0186531     0.0000000
    3  H            1.0     0.0225844     0.0015740     0.0000000

          MAXIMUM GRADIENT = 0.0225844    RMS GRADIENT = 0.0139055

 NSERCH:   4  E=      -92.8253575333  GRAD. MAX=  0.0225844  R.M.S.=  0.0139055

          HESSIAN UPDATED USING THE BFGS FORMULA
          WARNING! HEREDITARY POSITIVE DEFINITENESS ENDANGERED
 LOCAL CURVATURE   1 OF THE APPROXIMATE HESSIAN HAS EIGENVALUE=   -0.048994
 *** THIS MODE HAS AN INCORRECT CURVATURE ***
 THE COMPONENTS OF THIS MODE FOLLOWS:
       -0.325415      -0.562189       0.000000      -0.235072       0.440178
       -0.000000       0.560487       0.122012       0.000000
             ACTUAL ENERGY CHANGE WAS  -0.0042977786
          PREDICTED ENERGY CHANGE WAS  -0.0044466075 RATIO=  0.967
          TRIM/QA LAMBDA FOR NON-TS MODES =  -0.22723482
          TRIM/QA STEP HAS LENGTH         =   0.222842
          RADIUS OF STEP TAKEN=   0.22284  CURRENT TRUST RADIUS=   0.22284

 BEGINNING GEOMETRY SEARCH POINT NSERCH=   5 ...

 COORDINATES OF SYMMETRY UNIQUE ATOMS (ANGS)
   ATOM   CHARGE       X              Y              Z
 ------------------------------------------------------------
 N           7.0   0.1114624696   0.1630265942   0.0000000000
 C           6.0   1.2631948691  -0.1066638600   0.0000000000
 H           1.0   0.7112300723   1.0914618592   0.0000000000
 COORDINATES OF ALL ATOMS ARE (ANGS)
   ATOM   CHARGE       X              Y              Z
 ------------------------------------------------------------
 N           7.0   0.1114624696   0.1630265942   0.0000000000
 C           6.0   1.2631948691  -0.1066638600   0.0000000000
 H           1.0   0.7112300723   1.0914618592   0.0000000000

          INTERNUCLEAR DISTANCES (ANGS.)
          ------------------------------

                1 N          2 C          3 H     

   1 N       0.0000000    1.1828865 *  1.1053114 *
   2 C       1.1828865 *  0.0000000    1.3191552 *
   3 H       1.1053114 *  1.3191552 *  0.0000000  

  * ... LESS THAN  3.000

 ...... END OF ONE-ELECTRON INTEGRALS ......
 CPU     0: STEP CPU TIME=     0.00 TOTAL CPU TIME=          0.3 (      0.0 MIN)
 TOTAL WALL CLOCK TIME=          0.3 SECONDS, CPU UTILIZATION IS    97.05%
 TOTAL NUMBER OF NONZERO TWO-ELECTRON INTEGRALS =              186515
         13 INTEGRAL RECORDS WERE STORED ON DISK FILE  8.
  ...... END OF TWO-ELECTRON INTEGRALS .....
 CPU     0: STEP CPU TIME=     0.03 TOTAL CPU TIME=          0.3 (      0.0 MIN)
 TOTAL WALL CLOCK TIME=          0.3 SECONDS, CPU UTILIZATION IS    99.06%

          --------------------------
                 RHF SCF CALCULATION
          --------------------------
     DENSITY MATRIX CONV=  5.00E-05

 ITER EX DEM     TOTAL ENERGY        E CHANGE  DENSITY CHANGE     ORB. GRAD
          ---------------START SECOND ORDER SCF---------------
   1  0  0      -92.8181012658   -92.8181012658   0.025183395   0.030287777
   2  1  0      -92.8307633431    -0.0126620773   0.032789775   0.011734901
   3  2  0      -92.8331286851    -0.0023653420   0.007222908   0.007094749
   4  3  0      -92.8336395883    -0.0005109032   0.002923707   0.002085099
   5  4  0      -92.8337072303    -0.0000676420   0.001233742   0.000994071
   6  5  0      -92.8337158654    -0.0000086352   0.000414195   0.000195680
   7  6  0      -92.8337164075    -0.0000005421   0.000234042   0.000060625
   8  7  0      -92.8337164812    -0.0000000737   0.000087942   0.000016917
   9  8  0      -92.8337164852    -0.0000000039   0.000016074   0.000003951
  10  9  0      -92.8337164855    -0.0000000004   0.000007079   0.000001678

          -----------------
          DENSITY CONVERGED
          -----------------
     TIME TO FORM FOCK OPERATORS=       0.0 SECONDS (       0.0 SEC/ITER)
     TIME TO SOLVE SCF EQUATIONS=       0.0 SECONDS (       0.0 SEC/ITER)

 FINAL RHF ENERGY IS      -92.8337164855 AFTER  10 ITERATIONS
 ...... END OF RHF CALCULATION ......
 CPU     0: STEP CPU TIME=     0.02 TOTAL CPU TIME=          0.4 (      0.0 MIN)
 TOTAL WALL CLOCK TIME=          0.4 SECONDS, CPU UTILIZATION IS    99.27%
 ..... END OF 1-ELECTRON GRADIENT ......
 CPU     0: STEP CPU TIME=     0.00 TOTAL CPU TIME=          0.4 (      0.0 MIN)
 TOTAL WALL CLOCK TIME=          0.4 SECONDS, CPU UTILIZATION IS    99.00%
 ...... END OF 2-ELECTRON GRADIENT ......
 CPU     0: STEP CPU TIME=     0.02 TOTAL CPU TIME=          0.4 (      0.0 MIN)
 TOTAL WALL CLOCK TIME=          0.4 SECONDS, CPU UTILIZATION IS    97.66%

          NSERCH=  5     ENERGY=     -92.8337165

                                 -----------------------
                                 GRADIENT (HARTREE/BOHR)
                                 -----------------------
        ATOM     ZNUC       DE/DX         DE/DY         DE/DZ
 --------------------------------------------------------------
    1  N            7.0    -0.0273047    -0.0051065     0.0000000
    2  C            6.0     0.0089666     0.0209189     0.0000000
    3  H            1.0     0.0183381    -0.0158124     0.0000000

          MAXIMUM GRADIENT = 0.0273047    RMS GRADIENT = 0.0144374

 NSERCH:   5  E=      -92.8337164855  GRAD. MAX=  0.0273047  R.M.S.=  0.0144374

          HESSIAN UPDATED USING THE BFGS FORMULA
             ACTUAL ENERGY CHANGE WAS  -0.0083589522
          PREDICTED ENERGY CHANGE WAS  -0.0101002765 RATIO=  0.828
          MIN SEARCH, CORRECT HESSIAN, TRYING PURE NR STEP
               NR STEP HAS LENGTH         =   0.815855
          TRIM/QA LAMBDA FOR NON-TS MODES =  -0.06195736
          TRIM/QA STEP HAS LENGTH         =   0.315146
          RADIUS OF STEP TAKEN=   0.31515  CURRENT TRUST RADIUS=   0.31515

 BEGINNING GEOMETRY SEARCH POINT NSERCH=   6 ...

 COORDINATES OF SYMMETRY UNIQUE ATOMS (ANGS)
   ATOM   CHARGE       X              Y              Z
 ------------------------------------------------------------
 N           7.0   0.1726877692   0.2395960633   0.0000000000
 C           6.0   1.2957099003  -0.1970263900   0.0000000000
 H           1.0   0.6174897415   1.1052549203   0.0000000000
 COORDINATES OF ALL ATOMS ARE (ANGS)
   ATOM   CHARGE       X              Y              Z
 ------------------------------------------------------------
 N           7.0   0.1726877692   0.2395960633   0.0000000000
 C           6.0   1.2957099003  -0.1970263900   0.0000000000
 H           1.0   0.6174897415   1.1052549203   0.0000000000

          INTERNUCLEAR DISTANCES (ANGS.)
          ------------------------------

                1 N          2 C          3 H     

   1 N       0.0000000    1.2049141 *  0.9732492 *
   2 C       1.2049141 *  0.0000000    1.4683049 *
   3 H       0.9732492 *  1.4683049 *  0.0000000  

  * ... LESS THAN  3.000

 ...... END OF ONE-ELECTRON INTEGRALS ......
 CPU     0: STEP CPU TIME=     0.00 TOTAL CPU TIME=          0.4 (      0.0 MIN)
 TOTAL WALL CLOCK TIME=          0.4 SECONDS, CPU UTILIZATION IS    97.40%
 TOTAL NUMBER OF NONZERO TWO-ELECTRON INTEGRALS =              186514
         14 INTEGRAL RECORDS WERE STORED ON DISK FILE  8.
  ...... END OF TWO-ELECTRON INTEGRALS .....
 CPU     0: STEP CPU TIME=     0.02 TOTAL CPU TIME=          0.4 (      0.0 MIN)
 TOTAL WALL CLOCK TIME=          0.4 SECONDS, CPU UTILIZATION IS    98.64%

          --------------------------
                 RHF SCF CALCULATION
          --------------------------
     DENSITY MATRIX CONV=  5.00E-05

 ITER EX DEM     TOTAL ENERGY        E CHANGE  DENSITY CHANGE     ORB. GRAD
          ---------------START SECOND ORDER SCF---------------
   1  0  0      -92.8083771975   -92.8083771975   0.099428997   0.041925921
   2  1  0      -92.8315303950    -0.0231531975   0.049966322   0.015165618
   3  2  0      -92.8360410807    -0.0045106857   0.016041818   0.009627949
   4  3  0      -92.8370304134    -0.0009893327   0.005448859   0.002579487
   5  4  0      -92.8371945722    -0.0001641588   0.001710236   0.001001521
   6  5  0      -92.8372184616    -0.0000238894   0.000555814   0.000306698
   7  6  0      -92.8372201675    -0.0000017060   0.000279932   0.000083583
   8  7  0      -92.8372203719    -0.0000002043   0.000073681   0.000035779
   9  8  0      -92.8372203854    -0.0000000136   0.000013732   0.000013243
  10  9  0      -92.8372203877    -0.0000000023   0.000014738   0.000004476

          -----------------
          DENSITY CONVERGED
          -----------------
[...]
 COORDINATES OF ALL ATOMS ARE (ANGS)
   ATOM   CHARGE       X              Y              Z
 ------------------------------------------------------------
 N           7.0   0.6699664814   0.4318144813   0.0000000000
 C           6.0   1.1957362157  -0.5892011867   0.0000000000
 H           1.0   0.2201847139   1.3052112988   0.0000000000

          INTERNUCLEAR DISTANCES (ANGS.)
          ------------------------------

                1 N          2 C          3 H     

   1 N       0.0000000    1.1484367 *  0.9824081 *
   2 C       1.1484367 *  0.0000000    2.1308448 *
   3 H       0.9824081 *  2.1308448 *  0.0000000  

  * ... LESS THAN  3.000


          NUCLEAR ENERGY    =       24.6134033193
          ELECTRONIC ENERGY =     -117.4921466792
          TOTAL ENERGY      =      -92.8787433600

          ------------------
          MOLECULAR ORBITALS
          ------------------

                      1          2          3          4          5
                  -15.6000   -11.2836    -1.2752    -0.8840    -0.5245
                     A'         A'         A'         A'         A'  
    1  N  1  S   -0.557524  -0.000509   0.106799  -0.032221  -0.000001
    2  N  1  S   -0.467879  -0.000591   0.174471  -0.052242  -0.000002
    3  N  1  X    0.000239   0.000166  -0.027467  -0.093572   0.200850
    4  N  1  Y   -0.000464  -0.000323   0.053340   0.181706   0.103429
    5  N  1  Z    0.000000   0.000000   0.000000   0.000000   0.000000
    6  N  1  S   -0.006285   0.001265  -0.464595   0.153996   0.000006
    7  N  1  X   -0.000460   0.000733  -0.035115  -0.152203   0.318869
    8  N  1  Y    0.000894  -0.001423   0.068193   0.295560   0.164204
    9  N  1  Z    0.000000   0.000000   0.000000   0.000000   0.000000
   10  N  1  S   -0.001186   0.001387  -0.338377   0.159328   0.000007
   11  N  1  X   -0.000126   0.000796  -0.019433  -0.079148   0.307906
   12  N  1  Y    0.000244  -0.001545   0.037738   0.153696   0.158560
   13  N  1  Z    0.000000   0.000000   0.000000   0.000000   0.000000
   14  N  1 XX    0.000665   0.000061  -0.001004   0.004034   0.011572
   15  N  1 YY    0.000048   0.000591  -0.035250   0.018989  -0.011572
   16  N  1 ZZ    0.000888  -0.000130   0.011355  -0.001365   0.000000
   17  N  1 XY    0.000499  -0.000429   0.027713  -0.012104  -0.009534
   18  N  1 XZ    0.000000   0.000000   0.000000   0.000000   0.000000
   19  N  1 YZ    0.000000   0.000000   0.000000   0.000000   0.000000
   20  C  2  S   -0.000099   0.563578   0.066842   0.057041   0.000001
   21  C  2  S    0.000003   0.466486   0.107809   0.096999   0.000003
   22  C  2  X    0.000075  -0.001411   0.045104   0.031611   0.121511
   23  C  2  Y   -0.000145   0.002740  -0.087589  -0.061387   0.062573
   24  C  2  Z    0.000000   0.000000   0.000000   0.000000   0.000000
   25  C  2  S    0.000170   0.002773  -0.259613  -0.250425  -0.000007
   26  C  2  X   -0.000224   0.001098   0.048245   0.033005   0.193035
   27  C  2  Y    0.000436  -0.002132  -0.093689  -0.064096   0.099405
   28  C  2  Z    0.000000   0.000000   0.000000   0.000000   0.000000
   29  C  2  S    0.000407  -0.000744  -0.027248  -0.091822  -0.000006
   30  C  2  X   -0.000077   0.000033  -0.005072   0.001582   0.107944
   31  C  2  Y    0.000149  -0.000063   0.009849  -0.003072   0.055588
   32  C  2  Z    0.000000   0.000000   0.000000   0.000000   0.000000
   33  C  2 XX    0.000094  -0.000912   0.008702   0.009957  -0.036743
   34  C  2 YY    0.000279  -0.000838  -0.009841  -0.005577   0.036743
   35  C  2 ZZ    0.000028  -0.000939   0.015394   0.015562   0.000000
   36  C  2 XY   -0.000149  -0.000060   0.015005   0.012569   0.030272
   37  C  2 XZ    0.000000   0.000000   0.000000   0.000000   0.000000
   38  C  2 YZ    0.000000   0.000000   0.000000   0.000000   0.000000
   39  H  3  S   -0.000165  -0.000133  -0.058085   0.179000  -0.000002
   40  H  3  S   -0.000048   0.000794  -0.048915   0.171611  -0.000001
   41  H  3  S    0.000046   0.000101   0.004015   0.021943  -0.000001

                      6          7          8          9         10
                   -0.5245    -0.4829     0.1468     0.1958     0.1958
                     A''        A'         A'         A'         A'' 
    1  N  1  S    0.000000   0.026471   0.033723   0.000000   0.000000
    2  N  1  S    0.000000   0.045417   0.062302   0.000000   0.000000
    3  N  1  X    0.000000  -0.036798   0.039723   0.135988   0.000000
    4  N  1  Y    0.000000   0.071464  -0.077141   0.070028   0.000000
    5  N  1  Z   -0.225917   0.000000   0.000000   0.000000  -0.152959
    6  N  1  S    0.000000  -0.126790  -0.123180   0.000001   0.000000
    7  N  1  X    0.000000  -0.054251   0.041025   0.178905   0.000000
    8  N  1  Y    0.000000   0.105361  -0.079672   0.092130   0.000000
    9  N  1  Z   -0.358664   0.000000   0.000000   0.000000  -0.201234
   10  N  1  S    0.000000  -0.179855  -0.794873  -0.000027   0.000000
   11  N  1  X    0.000000  -0.047531   0.351490   0.595477   0.000000
   12  N  1  Y    0.000000   0.092311  -0.682568   0.306656   0.000000
   13  N  1  Z   -0.346334   0.000000   0.000000   0.000000  -0.669799
   14  N  1 XX    0.000000   0.001634   0.018152  -0.024809   0.000000
   15  N  1 YY    0.000000  -0.003259   0.018427   0.024809   0.000000
   16  N  1 ZZ    0.000000   0.003398   0.018052   0.000001   0.000000
   17  N  1 XY    0.000000   0.003958  -0.000223   0.020440   0.000000
   18  N  1 XZ   -0.007515   0.000000   0.000000   0.000000   0.016112
   19  N  1 YZ    0.014594   0.000000   0.000000   0.000000  -0.031287
   20  C  2  S    0.000000  -0.076203  -0.005578   0.000001   0.000000
   21  C  2  S    0.000000  -0.129532  -0.011666   0.000001   0.000000
   22  C  2  X    0.000000   0.092200  -0.020445  -0.167730   0.000000
   23  C  2  Y    0.000000  -0.179042   0.039711  -0.086374   0.000000
   24  C  2  Z   -0.136676   0.000000   0.000000   0.000000   0.188663
   25  C  2  S    0.000000   0.365001   0.000849  -0.000003   0.000000
   26  C  2  X    0.000000   0.126802  -0.012434  -0.231398   0.000000
   27  C  2  Y    0.000000  -0.246235   0.024159  -0.119156   0.000000
   28  C  2  Z   -0.217126   0.000000   0.000000   0.000000   0.260275
   29  C  2  S    0.000000   0.608819  -0.531918   0.000022   0.000000
   30  C  2  X    0.000000   0.077892   0.079051  -0.785841   0.000000
   31  C  2  Y    0.000000  -0.151257  -0.153484  -0.404656   0.000000
   32  C  2  Z   -0.121416   0.000000   0.000000   0.000000   0.883907
   33  C  2 XX    0.000000   0.008363  -0.008078  -0.005033   0.000000
   34  C  2 YY    0.000000  -0.012338  -0.010551   0.005033   0.000000
   35  C  2 ZZ    0.000000   0.015834  -0.007185  -0.000000   0.000000
   36  C  2 XY    0.000000   0.016752   0.002001   0.004146   0.000000
   37  C  2 XZ    0.023861   0.000000   0.000000   0.000000   0.003268
   38  C  2 YZ   -0.046337   0.000000   0.000000   0.000000  -0.006347
   39  H  3  S    0.000000   0.037731   0.030322  -0.000003   0.000000
   40  H  3  S    0.000000   0.045404   0.101969  -0.000022   0.000000
   41  H  3  S    0.000000   0.033507   1.784224   0.000038   0.000000

                     11         12         13         14         15
                    0.3753     0.4968     0.6073     0.6073     0.6316
                     A'         A'         A''        A'         A'  
    1  N  1  S   -0.011641   0.044301   0.000000   0.000000   0.025348
    2  N  1  S   -0.023598   0.082320   0.000000   0.000001   0.042189
    3  N  1  X    0.029543   0.000988   0.000000  -0.039465   0.023597
    4  N  1  Y   -0.057361  -0.001912   0.000000  -0.020324  -0.045823
    5  N  1  Z    0.000000   0.000000  -0.044391   0.000000   0.000000
    6  N  1  S   -0.001544  -0.120462   0.000000  -0.000002  -0.100816
    7  N  1  X    0.060131   0.040009   0.000000  -0.186826   0.065425
    8  N  1  Y   -0.116756  -0.077682   0.000000  -0.096210  -0.127052
    9  N  1  Z    0.000000   0.000000  -0.210143   0.000000   0.000000
   10  N  1  S    2.308896  -2.785531   0.000000  -0.000016  -1.543340
   11  N  1  X    0.910203  -0.286242   0.000000   0.257585  -0.405855
   12  N  1  Y   -1.767492   0.555909   0.000000   0.132686   0.788170
   13  N  1  Z    0.000000   0.000000   0.289750   0.000000   0.000000
   14  N  1 XX   -0.026984   0.019530   0.000000  -0.031359  -0.006962
   15  N  1 YY    0.033650   0.029141   0.000000   0.031358  -0.017632
   16  N  1 ZZ   -0.048864   0.016062   0.000000  -0.000000  -0.003111
   17  N  1 XY   -0.049063  -0.007777   0.000000   0.025835   0.008634
   18  N  1 XZ    0.000000   0.000000  -0.020364   0.000000   0.000000
   19  N  1 YZ    0.000000   0.000000   0.039546   0.000000   0.000000
   20  C  2  S   -0.032219  -0.056795   0.000000  -0.000002   0.059334
   21  C  2  S   -0.046198  -0.084545   0.000000  -0.000002   0.067162
   22  C  2  X   -0.028832  -0.019622   0.000000  -0.176999  -0.068996
   23  C  2  Y    0.055987   0.038104   0.000000  -0.091146   0.133981
   24  C  2  Z    0.000000   0.000000  -0.199088   0.000000   0.000000
   25  C  2  S    0.271349   0.485156   0.000000   0.000029  -0.720510
   26  C  2  X    0.038440  -0.007581   0.000000  -0.790186  -0.323628
   27  C  2  Y   -0.074647   0.014731   0.000000  -0.406899   0.628450
   28  C  2  Z    0.000000   0.000000  -0.888798   0.000000   0.000000
   29  C  2  S   -3.385800   1.710385   0.000000  -0.000006   2.729022
   30  C  2  X    0.971031  -0.871760   0.000000   0.873223  -0.108986
   31  C  2  Y   -1.885751   1.692857   0.000000   0.449672   0.211649
   32  C  2  Z    0.000000   0.000000   0.982203   0.000000   0.000000
   33  C  2 XX    0.043166   0.077126   0.000000   0.044309  -0.175827
   34  C  2 YY    0.001807   0.064884   0.000000  -0.044296  -0.153782
   35  C  2 ZZ    0.058092   0.081545   0.000000   0.000006  -0.183782
   36  C  2 XY    0.033469   0.009908   0.000000  -0.036501  -0.017838
   37  C  2 XZ    0.000000   0.000000   0.028770   0.000000   0.000000
   38  C  2 YZ    0.000000   0.000000  -0.055870   0.000000   0.000000
   39  H  3  S    0.047333   0.108703   0.000000   0.000001   0.079267
   40  H  3  S    1.232280   1.168435   0.000000  -0.000010   0.547567
   41  H  3  S    0.203516  -0.864692   0.000000   0.000001  -0.673647

                     16         17
                    0.8581     0.8581
                     A'         A'' 
    1  N  1  S   -0.000001   0.000000
    2  N  1  S   -0.000002   0.000000
    3  N  1  X    0.200856   0.000000
    4  N  1  Y    0.103436   0.000000
    5  N  1  Z    0.000000  -0.225925
    6  N  1  S    0.000009   0.000000
    7  N  1  X    0.768985   0.000000
    8  N  1  Y    0.396006   0.000000
    9  N  1  Z    0.000000  -0.864961
   10  N  1  S    0.000036   0.000000
   11  N  1  X   -1.291158   0.000000
   12  N  1  Y   -0.665047   0.000000
   13  N  1  Z    0.000000   1.452369
   14  N  1 XX   -0.005468   0.000000
   15  N  1 YY    0.005474   0.000000
   16  N  1 ZZ    0.000002   0.000000
   17  N  1 XY    0.004505   0.000000
   18  N  1 XZ    0.000000   0.003553
   19  N  1 YZ    0.000000  -0.006899
   20  C  2  S    0.000001   0.000000
   21  C  2  S    0.000001   0.000000
   22  C  2  X   -0.114560   0.000000
   23  C  2  Y   -0.058993   0.000000
   24  C  2  Z    0.000000   0.128858
   25  C  2  S   -0.000042   0.000000
   26  C  2  X   -0.313664   0.000000
   27  C  2  Y   -0.161546   0.000000
   28  C  2  Z    0.000000   0.352820
   29  C  2  S   -0.000074   0.000000
   30  C  2  X    0.808617   0.000000
   31  C  2  Y    0.416366   0.000000
   32  C  2  Z    0.000000  -0.909518
   33  C  2 XX   -0.071012   0.000000
   34  C  2 YY    0.070992   0.000000
   35  C  2 ZZ   -0.000006   0.000000
   36  C  2 XY    0.058502   0.000000
   37  C  2 XZ    0.000000   0.046110
   38  C  2 YZ    0.000000  -0.089543
   39  H  3  S   -0.000002   0.000000
   40  H  3  S    0.000057   0.000000
   41  H  3  S    0.000027   0.000000

     ----------------------------------------------------------------
     PROPERTY VALUES FOR THE RHF   SELF-CONSISTENT FIELD WAVEFUNCTION
     ----------------------------------------------------------------

          -----------------
          ENERGY COMPONENTS
          -----------------

         WAVEFUNCTION NORMALIZATION =       1.0000000000

                ONE ELECTRON ENERGY =    -173.8349566334
                TWO ELECTRON ENERGY =      56.3428099542
           NUCLEAR REPULSION ENERGY =      24.6134033193
                                      ------------------
                       TOTAL ENERGY =     -92.8787433600

 ELECTRON-ELECTRON POTENTIAL ENERGY =      56.3428099542
  NUCLEUS-ELECTRON POTENTIAL ENERGY =    -266.7021225886
   NUCLEUS-NUCLEUS POTENTIAL ENERGY =      24.6134033193
                                      ------------------
             TOTAL POTENTIAL ENERGY =    -185.7459093151
               TOTAL KINETIC ENERGY =      92.8671659551
                 VIRIAL RATIO (V/T) =       2.0001246663

  ...... PI ENERGY ANALYSIS ......

 ENERGY ANALYSIS:
            FOCK ENERGY=    -61.1493427416
          BARE H ENERGY=   -173.8349566334
     ELECTRONIC ENERGY =   -117.4921496875
         KINETIC ENERGY=     92.8671659551
          N-N REPULSION=     24.6134033193
           TOTAL ENERGY=    -92.8787463682
        SIGMA PART(1+2)=   -109.4925997067
               (K,V1,2)=     89.9628467743   -248.8476505488     49.3922040678
           PI PART(1+2)=     -7.9995499808
               (K,V1,2)=      2.9043191808    -17.8544720398      6.9506028782
  SIGMA SKELETON, ERROR=    -84.8791963874      0.0000000000
             MIXED PART= 0.00000E+00 0.00000E+00 0.00000E+00 0.00000E+00
 ...... END OF PI ENERGY ANALYSIS ......

          ---------------------------------------
          MULLIKEN AND LOWDIN POPULATION ANALYSES
          ---------------------------------------

     ATOMIC MULLIKEN POPULATION IN EACH MOLECULAR ORBITAL

                      1          2          3          4          5

                  2.000000   2.000000   2.000000   2.000000   2.000000

    1             2.000310   0.001376   1.451880   1.244082   1.430421
    2            -0.000317   1.998615   0.480004   0.266261   0.569579
    3             0.000007   0.000010   0.068116   0.489656   0.000000

                      6          7

                  2.000000   2.000000

    1             1.430421   0.020678
    2             0.569579   1.954815
    3             0.000000   0.024508

               ----- POPULATIONS IN EACH AO -----
                             MULLIKEN      LOWDIN
              1  N  1  S      1.09435     1.03856
              2  N  1  S      0.89998     0.92099
              3  N  1  X      0.25582     0.25742
              4  N  1  Y      0.26851     0.26675
              5  N  1  Z      0.25123     0.25302
              6  N  1  S      0.84862     0.47223
              7  N  1  X      0.61652     0.58758
              8  N  1  Y      0.65064     0.59201
              9  N  1  Z      0.60420     0.57921
             10  N  1  S      0.63574     0.31855
             11  N  1  X      0.50318     0.48650
             12  N  1  Y      0.31651     0.39062
             13  N  1  Z      0.57055     0.51908
             14  N  1 XX      0.00390     0.15535
             15  N  1 YY      0.06149     0.22079
             16  N  1 ZZ     -0.01490     0.13232
             17  N  1 XY      0.00839     0.01087
             18  N  1 XZ      0.00093     0.00108
             19  N  1 YZ      0.00351     0.00406
             20  C  2  S      1.10501     1.05091
             21  C  2  S      0.88788     0.91172
             22  C  2  X      0.14308     0.14033
             23  C  2  Y      0.25184     0.24556
             24  C  2  Z      0.10383     0.10202
             25  C  2  S      0.86995     0.50293
             26  C  2  X      0.32922     0.33591
             27  C  2  Y      0.47706     0.52763
             28  C  2  Z      0.27586     0.26524
             29  C  2  S      0.84781     0.52173
             30  C  2  X      0.15733     0.24841
             31  C  2  Y      0.16179     0.32120
             32  C  2  Z      0.15572     0.22202
             33  C  2 XX      0.00589     0.19379
             34  C  2 YY      0.01632     0.22786
             35  C  2 ZZ     -0.00471     0.17436
             36  C  2 XY      0.02050     0.04013
             37  C  2 XZ      0.00716     0.01137
             38  C  2 YZ      0.02700     0.04289
             39  H  3  S      0.25748     0.24617
             40  H  3  S      0.30111     0.32491
             41  H  3  S      0.02371     0.13592

          ----- MULLIKEN ATOMIC OVERLAP POPULATIONS -----
          (OFF-DIAGONAL ELEMENTS NEED TO BE MULTIPLIED BY 2)

             1           2           3

    1    6.6592847
    2    0.6016483   5.2406950
    3    0.3182336  -0.0038063   0.2678691

          TOTAL MULLIKEN AND LOWDIN ATOMIC POPULATIONS
       ATOM         MULL.POP.    CHARGE          LOW.POP.     CHARGE
    1 N             7.579167   -0.579167         7.206984   -0.206984
    2 C             5.838537    0.161463         6.086011   -0.086011
    3 H             0.582296    0.417704         0.707005    0.292995

          -------------------------------
          BOND ORDER AND VALENCE ANALYSIS     BOND ORDER THRESHOLD=0.050
          -------------------------------

                   BOND                       BOND                       BOND
  ATOM PAIR DIST  ORDER      ATOM PAIR DIST  ORDER      ATOM PAIR DIST  ORDER
    1   2  1.148  2.367        1   3  0.982  0.797

                       TOTAL       BONDED        FREE
      ATOM            VALENCE     VALENCE     VALENCE
    1 N                 3.164       3.164      -0.000
    2 C                 2.391       2.391      -0.000
    3 H                 0.821       0.821       0.000

          ---------------------
          ELECTROSTATIC MOMENTS
          ---------------------

 POINT   1           X           Y           Z (BOHR)    CHARGE
                 1.675744    0.020411    0.000000        0.00 (A.U.)
         DX          DY          DZ         /D/  (DEBYE)
    -1.370466    2.661236    0.000000    2.993385
 ...... END OF PROPERTY EVALUATION ......
 CPU     0: STEP CPU TIME=     0.02 TOTAL CPU TIME=          1.0 (      0.0 MIN)
 TOTAL WALL CLOCK TIME=          1.1 SECONDS, CPU UTILIZATION IS    96.93%
  $VIB   
          IVIB=   0 IATOM=   0 ICOORD=   0 E=      -92.8787433600
 -1.780592184E-06 5.513872573E-06 0.000000000E+00 1.265364233E-06-3.764480156E-06
  0.000000000E+00 5.152313841E-07-1.749391509E-06 0.000000000E+00
 -1.370465534E+00 2.661235776E+00 0.000000000E+00
 ......END OF GEOMETRY SEARCH......
 CPU     0: STEP CPU TIME=     0.00 TOTAL CPU TIME=          1.0 (      0.0 MIN)
 TOTAL WALL CLOCK TIME=          1.1 SECONDS, CPU UTILIZATION IS    96.93%
                990281  WORDS OF DYNAMIC MEMORY USED
 EXECUTION OF GAMESS TERMINATED NORMALLY 23:36:40 15-MAR-2023    
 DDI: 263640 bytes (0.3 MB / 0 MWords) used by master data server.

 ----------------------------------------
 CPU timing information for all processes
 ========================================
 0: 0.843750 + 0.265625 = 1.109375
 1: 0.921875 + 0.218750 = 1.140625
 2: 1.046875 + 2.125000 = 3.171875
 3: 1.156250 + 2.000000 = 3.156250
 ----------------------------------------
           Disk usage (in bytes)       
 ========================================
03/15/2023  11:36 PM               290 HCN_6-311Gd.F05
03/15/2023  11:36 PM         1,260,112 HCN_6-311Gd.F08
03/15/2023  11:36 PM         1,260,112 HCN_6-311Gd.F08.001
03/15/2023  11:36 PM         6,674,880 HCN_6-311Gd.F10
03/15/2023  11:36 PM            18,407 HCN_6-311Gd.GMS.ENV
03/15/2023  11:36 PM               133 HCN_6-311Gd.processes.mpd
 ----------------------------------------
            Local date and time          
 ========================================
Wed 03/15/2023 - 23:36:42.57                          
