          *******************************************************
          *                                                     *
          *      GAMESS VERSION = 30 SEP 2021 (R2 Patch 2)      *
          *                                                     *
          *              doi.org/10.1063/5.0005188              *
          *                                                     *
          ************ 64 BIT WINDOWS INTEL VERSION *************

  GAMESS HAS BEEN MADE POSSIBLE WITH IMPORTANT CONTRIBUTIONS FROM
  THE FOLLOWING INDIVIDUALS (IN ALPHABETICAL ORDER):

     IVANA ADAMOVIC, CHRISTINE AIKENS, TOMOKO AKAMA,
     MELISA ALKAN, YURI ALEXEEV, YURIKO AOKI, POOJA ARORA,
     TOSHIO ASADA, ANDREY ASADCHEV, KIM K. BALDRIDGE,
     PRADIPTA BANDYOPADHYAY, TAYLOR A. BARNES, MARIA BARYSZ,
     ROB BELL, JONATHAN BENTZ, COLLEEN BERTONI,
     JERRY A. BOATZ, BRETT BODE, KURT BRORSEN, KURT R. BRORSEN,
     LAIMUTIS BYTAUTAS, CALEB CARLIN, LAURA CARRINGTON,
     GALINA CHABAN, BENOIT CHAMPAGNE, WEI CHEN, MAHITO CHIBA,
     DAN CHIPMAN, CHEOL HO CHOI, TANNER CULPITT,
     DIPAYAN DATTA, PAUL DAY, ALBERT DEFUSCO,
     NUWAN DESILVA, J. EMILIANO DEUSTUA,
     TIM DUDLEY, MICHEL DUPUIS, STEVEN T. ELBERT,
     DMITRI FEDOROV, ALEX FINDLATER, GRAHAM FLETCHER,
     MARK FREITAG, CHRISTIAN FRIEDL, DAVID GARMER,
     IGOR S. GERASIMOV, KURT GLAESEMANN, MARK S. GORDON,
     JEFFREY GOUR, FENG LONG GU, EMILIE B. GUIDEZ,
     ANASTASIA GUNINA, SHARON HAMMES-SCHIFFER, MASATAKE HARUTA,
     KIMIHIKO HIRAO, YASUHIRO IKABATA, TZVETELIN IORDANOV,
     STEPHAN IRLE, KAZUYA ISHIMURA, JOE IVANIC, FRANK JENSEN,
     JAN H. JENSEN, VISVALDAS KAIRYS, MUNEAKI KAMIYA,
     MICHIO KATOUDA, NAOAKI KAWAKAMI, DAN KEMP, BERNARD KIRTMAN,
     KAZUO KITAURA, MARIUSZ KLOBUKOWSKI, MASATO KOBAYASHI,
     PRAKASHAN KORAMBATH, JACEK KORCHOWIEC, SHIRO KOSEKI,
     KAROL KOWALSKI, JIMMY KROMANN, STANISLAW KUCHARSKI,
     HENRY KURTZ, SAROM SOK LEANG, HUI LI, SHUHUA LI, WEI LI,
     JESSE LUTZ, ALEKSANDR O. LYKHIN, MARCIN MAKOWSKI,
     JOANI MATO, NIKITA MATSUNAGA, BENEDETTA MENNUCCI,
     GRANT MERRILL, NORIYUKI MINEZAWA, VLADIMIR MIRONOV,
     EISAKU MIYOSHI, JOHN A. MONTGOMERY JR., HIROTOSHI MORI,
     JONATHAN MULLIN, MONIKA MUSIAL, SHIGERU NAGASE,
     TAKESHI NAGATA, HIROMI NAKAI, TAKAHITO NAKAJIMA,
     YUYA NAKAJIMA, HARUYUKI NAKANO, HIROYA NAKATA, SEAN NEDD,
     HEATHER NETZLOFF, KIET A. NGUYEN, YOSHIO NISHIMOTO,
     BOSILJKA NJEGIC, RYAN OLSON, MIKE PAK, ROBERTO PEVERATI,
     BUU PHAM, PIOTR PIECUCH, ANNA POMOGAEVA, DAVID POOLE,
     SPENCER PRUITT, OLIVIER QUINET, LUKE ROSKOP,
     KLAUS RUEDENBERG, ANDREW SAND, TOSAPORN SATTASATHUCHANA,
     NOZOMI SAWADA, MICHAEL W. SCHMIDT, PATRICK E. SCHNEIDER,
     JUNJI SEINO, PRACHI SHARMA, JUN SHEN, JIM SHOEMAKER,
     YINAN SHU, DEJUN SI, JONATHAN SKONE, LYUDMILA SLIPCHENKO,
     TONY SMITH, JIE SONG, MARK SPACKMAN, CASPER STEINMANN,
     WALT STEVENS, PEIFENG SU, SHUJUN SU, CHET SWALINA,
     TETSUYA TAKETSUGU, ZHEN TAO, NANDUN THELLAMUREGE
     SEIKEN TOKURA, JACOPO TOMASI, TSUGUKI TOUMA, TAKAO TSUNEDA,
     HIROAKI UMEDA, JORGE LUIS GALVEZ VALLEJO, YALI WANG,
     SIMON WEBB, AARON WEST, THERESA L. WINDUS, MARTA WLOCH,
     PENG XU, KIYOSHI YAGI, SUSUMU YANAGISAWA, YANG YANG,
     SOOHAENG YOO, TAKESHI YOSHIKAWA, FEDERICO ZAHARIEV,
     TOBY ZENG

  WHO ARE SUPPORTED BY THEIR INSTITUTION/UNIVERSITY/COMPANY/GROUP
  (IN ALPHABETICAL ORDER):

     EP ANALYTICS, FACULTES UNIVERSITAIRES NOTRE-DAME DE LA PAIX,
     INSTITUTE FOR MOLECULAR SCIENCE, IOWA STATE UNIVERSITY,
     JACKSON STATE UNIVERSITY, JOHANNES KEPLER UNIVERSITY LINZ,
     KYUSHU UNIVERSITY, MICHIGAN STATE UNIVERSITY,
     MIE UNIVERSITY, THE MOLECULAR SCIENCES SOFTWARE INSTITUTE,
     MOSCOW STATE UNIVERSITY,
     N. COPERNICUS UNIVERSITY, NAGOYA UNIVERSITY,
     NANJING UNIVERSITY, NAT. INST. OF ADVANCED INDUSTRIAL
     SCIENCE AND TECHNOLOGY, NATIONAL INST. OF STANDARDS AND
     TECHNOLOGY, NESMEYANOV INSTITUTE OF ORGANOELEMENT COMPOUNDS
     OF RUSSIAN ACADEMY OF SCIENCES, OSAKA PREFECTURE UNIVERSITY,
     PENNSYLVANIA STATE UNIVERSITY, TOKYO INSTITUTE OF TECHNOLOGY,
     UNIVERSITY OF AARHUS, UNIVERSITY OF ALBERTA,
     UNIVERSITY OF CALIFORNIA AT SANTA BARBARA,
     UNIVERSITY OF COPENHAGEN, UNIVERSITY OF IOWA,
     UNIVERSITY OF MEMPHIS, UNIVERSITY OF MINNESOTA,
     UNIVERSITY OF NEBRASKA, UNIVERSITY OF NEW ENGLAND,
     UNIVERSITY OF NOTRE DAME, UNIVERSITY OF PISA,
     UNIVERSITY OF SILESIA, UNIVERSITY OF TOKYO,
     UNIVERSITY OF ZURICH, WASEDA UNIVERSITY, YALE UNIVERSITY

  GAMESS SOFTWARE MANAGEMENT TEAM FOR THIS RELEASE:
     MARK S. GORDON (TEAM LEAD),
     BRETT BODE (SENIOR ADVISOR),
     GIUSEPPE BARCA,
     COLLEEN BERTONI,
     KRISTOPHER KEIPERT (ADVISOR),
     SAROM S. LEANG (DEVELOPMENT LEAD),
     BUU PHAM,
     JORGE LUIS GALVEZ VALLEJO (WEBSITE ADMINISTRATOR),
     PENG XU


 PARALLEL VERSION RUNNING ON        2 PROCESSORS IN        2 NODES.

 EXECUTION OF GAMESS BEGUN 18:53:13 16-MAR-2023    

            ECHO OF THE FIRST FEW INPUT CARDS -
 INPUT CARD> $CONTRL SCFTYP=RHF RUNTYP=OPTIMIZE $END                                        
 INPUT CARD> $BASIS GBASIS=N311 NGAUSS=6 NDFUNC=1  $END                                     
 INPUT CARD> $DATA                                                                          
 INPUT CARD>    6-311G(d) N2                                                                
 INPUT CARD>    CNV 2                                                                       
 INPUT CARD>                                                                                
 INPUT CARD> N     7.0    -0.5820172282     0.0000000000     0.0000000000                   
 INPUT CARD>  $END                                                                          
    1000000 WORDS OF MEMORY AVAILABLE

     BASIS OPTIONS
     -------------
     GBASIS=N311         IGAUSS=       6      POLAR=POPN311 
     NDFUNC=       1     NFFUNC=       0     DIFFSP=       F
     NPFUNC=       0      DIFFS=       F     BASNAM=        


     RUN TITLE
     ---------
     6-311G(d) N2                                                                

 THE POINT GROUP OF THE MOLECULE IS CNV     
 THE ORDER OF THE PRINCIPAL AXIS IS     2

 ATOM      ATOMIC                      COORDINATES (BOHR)
           CHARGE         X                   Y                   Z
 N           7.0     1.0998530814       -0.0000000000        0.0000000000
 N           7.0    -1.0998530814        0.0000000000        0.0000000000

          INTERNUCLEAR DISTANCES (ANGS.)
          ------------------------------

                1 N          2 N     

   1 N       0.0000000    1.1640345 *
   2 N       1.1640345 *  0.0000000  

  * ... LESS THAN  3.000


     ATOMIC BASIS SET
     ----------------
 THE CONTRACTED PRIMITIVE FUNCTIONS HAVE BEEN UNNORMALIZED
 THE CONTRACTED BASIS FUNCTIONS ARE NOW NORMALIZED TO UNITY

  SHELL TYPE  PRIMITIVE        EXPONENT          CONTRACTION COEFFICIENT(S)

 N         

      6   S       1          6293.4800000    0.001969788147
      6   S       2           949.0440000    0.014961285923
      6   S       3           218.7760000    0.073500530843
      6   S       4            63.6916000    0.248936765774
      6   S       5            18.8282000    0.602459433142
      6   S       6             2.7202300    0.256201758938

      7   L       7            30.6331000    0.111906079519    0.038311918640
      7   L       8             7.0261400    0.921666654920    0.237403115502
      7   L       9             2.1120500   -0.002569191826    0.817592397779

      8   L      10             0.6840090    1.000000000000    1.000000000000

      9   L      11             0.2008780    1.000000000000    1.000000000000

     10   D      12             0.9130000    1.000000000000

 TOTAL NUMBER OF BASIS SET SHELLS             =   10
 NUMBER OF CARTESIAN GAUSSIAN BASIS FUNCTIONS =   38
 NUMBER OF ELECTRONS                          =   14
 CHARGE OF MOLECULE                           =    0
 SPIN MULTIPLICITY                            =    1
 NUMBER OF OCCUPIED ORBITALS (ALPHA)          =    7
 NUMBER OF OCCUPIED ORBITALS (BETA )          =    7
 TOTAL NUMBER OF ATOMS                        =    2
 THE NUCLEAR REPULSION ENERGY IS       22.2757024676

 THIS MOLECULE IS RECOGNIZED AS BEING LINEAR,
 ORBITAL LZ DEGENERACY TOLERANCE ETOLLZ= 1.00E-06

     $CONTRL OPTIONS
     ---------------
 SCFTYP=RHF          RUNTYP=OPTIMIZE     EXETYP=RUN     
 MPLEVL=       0     CITYP =NONE         CCTYP =NONE         VBTYP =NONE    
 DFTTYP=NONE         TDDFT =NONE    
 MULT  =       1     ICHARG=       0     NZVAR =       0     COORD =UNIQUE  
 PP    =NONE         RELWFN=NONE         LOCAL =NONE         NUMGRD=       F
 ISPHER=      -1     NOSYM =       0     MAXIT =      30     UNITS =ANGS    
 PLTORB=       F     MOLPLT=       F     AIMPAC=       F     FRIEND=        
 NPRINT=       7     IREST =       0     GEOM  =INPUT   
 NORMF =       0     NORMP =       0     ITOL  =      20     ICUT  =       9
 INTTYP=BEST         GRDTYP=BEST         QMTTOL= 1.0E-06

     $SYSTEM OPTIONS
     ---------------
  REPLICATED MEMORY=     1000000 WORDS (ON EVERY NODE).
 DISTRIBUTED MEMDDI=           0 MILLION WORDS IN AGGREGATE,
 MEMDDI DISTRIBUTED OVER   2 PROCESSORS IS           0 WORDS/PROCESSOR.
 TOTAL MEMORY REQUESTED ON EACH PROCESSOR=     1000000 WORDS.
 TIMLIM=      525600.00 MINUTES, OR     365.0 DAYS.
 PARALL= T  BALTYP=  DLB     KDIAG=    0  COREFL= F
 MXSEQ2=     300 MXSEQ3=     150  mem10=         0  mem22=         0

          ----------------
          PROPERTIES INPUT
          ----------------

     MOMENTS            FIELD           POTENTIAL          DENSITY
 IEMOM =       1   IEFLD =       0   IEPOT =       0   IEDEN =       0
 WHERE =COMASS     WHERE =NUCLEI     WHERE =NUCLEI     WHERE =NUCLEI  
 OUTPUT=BOTH       OUTPUT=BOTH       OUTPUT=BOTH       OUTPUT=BOTH    
 IEMINT=       0   IEFINT=       0                     IEDINT=       0
                                                       MORB  =       0
          EXTRAPOLATION IN EFFECT
          SOSCF IN EFFECT
 ORBITAL PRINTING OPTION: NPREO=     1    38     2     1

     -------------------------------
     INTEGRAL TRANSFORMATION OPTIONS
     -------------------------------
     NWORD  =            0
     CUTOFF = 1.0E-09     MPTRAN =       0
     DIRTRF =       F     AOINTS =DUP     

          ----------------------
          INTEGRAL INPUT OPTIONS
          ----------------------
 NOPK  =       1 NORDER=       0 SCHWRZ=       F

     ------------------------------------------
     THE POINT GROUP IS CNV, NAXIS= 2, ORDER= 4
     ------------------------------------------

     DIMENSIONS OF THE SYMMETRY SUBSPACES ARE
 A1  =   14     A2  =    5     B1  =   14     B2  =    5

 ..... DONE SETTING UP THE RUN .....
 CPU     0: STEP CPU TIME=     0.03 TOTAL CPU TIME=          0.0 (      0.0 MIN)
 TOTAL WALL CLOCK TIME=          0.1 SECONDS, CPU UTILIZATION IS    66.96%


          -----------------------------
          STATIONARY POINT LOCATION RUN
          -----------------------------

 OBTAINING INITIAL HESSIAN, HESS=GUESS   
 CARTESIAN COORDINATE OPTIMIZATION USING BADGER'S RULE FORCE CONSTANT GUESS

          PARAMETERS CONTROLLING GEOMETRY SEARCH ARE
          METHOD =QA                  UPHESS =BFGS    
          NNEG   =         0          NFRZ   =         0
          NSTEP  =        50          IFOLOW =         1
          HESS   =GUESS               RESTAR =         F
          IHREP  =         0          HSSEND =         F
          NPRT   =         0          NPUN   =         0
          OPTTOL = 1.000E-04          RMIN   = 1.500E-03
          RMAX   = 1.000E-01          RLIM   = 7.000E-02
          DXMAX  = 3.000E-01          PURIFY =         F
          MOVIE  =         F          TRUPD  =         T
          TRMAX  = 5.000E-01          TRMIN  = 5.000E-02
          ITBMAT =         5          STPT   =         F
          STSTEP = 1.000E-02          PROJCT=          T

 BEGINNING GEOMETRY SEARCH POINT NSERCH=   0 ...

 COORDINATES OF SYMMETRY UNIQUE ATOMS (ANGS)
   ATOM   CHARGE       X              Y              Z
 ------------------------------------------------------------
 N           7.0  -0.5820172282   0.0000000000   0.0000000000
 COORDINATES OF ALL ATOMS ARE (ANGS)
   ATOM   CHARGE       X              Y              Z
 ------------------------------------------------------------
 N           7.0   0.5820172282  -0.0000000000   0.0000000000
 N           7.0  -0.5820172282   0.0000000000   0.0000000000

          ********************
          1 ELECTRON INTEGRALS
          ********************
 ...... END OF ONE-ELECTRON INTEGRALS ......
 CPU     0: STEP CPU TIME=     0.00 TOTAL CPU TIME=          0.0 (      0.0 MIN)
 TOTAL WALL CLOCK TIME=          0.1 SECONDS, CPU UTILIZATION IS    63.34%

          -------------
          GUESS OPTIONS
          -------------
          GUESS =HUCKEL            NORB  =       0          NORDER=       0
          MIX   =       F          PRTMO =       F          PUNMO =       F
          TOLZ  = 1.0E-08          TOLE  = 1.0E-05
          SYMDEN=       F          PURIFY=       F

 INITIAL GUESS ORBITALS GENERATED BY HUCKEL   ROUTINE.
 HUCKEL GUESS REQUIRES     12706 WORDS.

 SYMMETRIES FOR INITIAL GUESS ORBITALS FOLLOW.   BOTH SET(S).
     7 ORBITALS ARE OCCUPIED (    2 CORE ORBITALS).
     3=A1       4=B1       5=A1       6=B2       7=A1       8=A2       9=B1  
    10=B1      11=A1      12=A1      13=A1      14=A1      15=A1      16=A1  
    17=A1  
 ...... END OF INITIAL ORBITAL SELECTION ......
 CPU     0: STEP CPU TIME=     0.00 TOTAL CPU TIME=          0.0 (      0.0 MIN)
 TOTAL WALL CLOCK TIME=          0.1 SECONDS, CPU UTILIZATION IS    58.59%

                    ----------------------
                    AO INTEGRAL TECHNOLOGY
                    ----------------------
     S,P,L SHELL ROTATED AXIS INTEGRALS, REPROGRAMMED BY
        KAZUYA ISHIMURA (IMS) AND JOSE SIERRA (SYNSTAR).
     S,P,D,L SHELL ROTATED AXIS INTEGRALS PROGRAMMED BY
        KAZUYA ISHIMURA (INSTITUTE FOR MOLECULAR SCIENCE).
     S,P,D,F,G SHELL TO TOTAL QUARTET ANGULAR MOMENTUM SUM 5,
        ERIC PROGRAM BY GRAHAM FLETCHER (ELORET AND NASA ADVANCED
        SUPERCOMPUTING DIVISION, AMES RESEARCH CENTER).
     S,P,D,F,G,L SHELL GENERAL RYS QUADRATURE PROGRAMMED BY
        MICHEL DUPUIS (PACIFIC NORTHWEST NATIONAL LABORATORY).

          --------------------
          2 ELECTRON INTEGRALS
          --------------------

 THE -PK- OPTION IS OFF, THE INTEGRALS ARE NOT IN SUPERMATRIX FORM.
 STORING   15000 INTEGRALS/RECORD ON DISK, USING 12 BYTES/INTEGRAL.
 TWO ELECTRON INTEGRAL EVALUATION REQUIRES   90451 WORDS OF MEMORY.
 II,JST,KST,LST =  1  1  1  1 NREC =         1 INTLOC =    1
 II,JST,KST,LST =  2  1  1  1 NREC =         1 INTLOC =    1
 II,JST,KST,LST =  3  1  1  1 NREC =         1 INTLOC =    1
 II,JST,KST,LST =  4  1  1  1 NREC =         1 INTLOC =    1
 II,JST,KST,LST =  5  1  1  1 NREC =         1 INTLOC =    1
 II,JST,KST,LST =  6  1  1  1 NREC =         1 INTLOC =    1
 II,JST,KST,LST =  7  1  1  1 NREC =         1 INTLOC =    1
 II,JST,KST,LST =  8  1  1  1 NREC =         1 INTLOC =  258
 II,JST,KST,LST =  9  1  1  1 NREC =         1 INTLOC = 1201
 II,JST,KST,LST = 10  1  1  1 NREC =         1 INTLOC = 5158
 TOTAL NUMBER OF NONZERO TWO-ELECTRON INTEGRALS =               37611
          4 INTEGRAL RECORDS WERE STORED ON DISK FILE  8.
  ...... END OF TWO-ELECTRON INTEGRALS .....
 CPU     0: STEP CPU TIME=     0.02 TOTAL CPU TIME=          0.1 (      0.0 MIN)
 TOTAL WALL CLOCK TIME=          0.1 SECONDS, CPU UTILIZATION IS    62.50%

          --------------------------
                 RHF SCF CALCULATION
          --------------------------

     NUCLEAR ENERGY =        22.2757024676
     MAXIT =   30     NPUNCH=    2
     EXTRAP=T  DAMP=F  SHIFT=F  RSTRCT=F  DIIS=F  DEM=F  SOSCF=T
     DENSITY MATRIX CONV=  1.00E-05
     SOSCF WILL OPTIMIZE     217 ORBITAL ROTATIONS, SOGTOL=   0.250
     MEMORY REQUIRED FOR RHF ITERS=     41508 WORDS.

 ITER EX DEM     TOTAL ENERGY        E CHANGE  DENSITY CHANGE     ORB. GRAD
   1  0  0     -108.5504548485  -108.5504548485   0.253392287   0.000000000
          ---------------START SECOND ORDER SCF---------------
   2  1  0     -108.9381724689    -0.3877176204   0.058982970   0.039612110
   3  2  0     -108.9461678288    -0.0079953600   0.019307419   0.010911737
   4  3  0     -108.9466861447    -0.0005183158   0.002829294   0.001895212
   5  4  0     -108.9466927716    -0.0000066270   0.000377205   0.000161332
   6  5  0     -108.9466929534    -0.0000001817   0.000049952   0.000031071
   7  6  0     -108.9466929553    -0.0000000020   0.000003355   0.000003252
   8  7  0     -108.9466929554    -0.0000000001   0.000000950   0.000000526

          -----------------
          DENSITY CONVERGED
          -----------------
     TIME TO FORM FOCK OPERATORS=       0.0 SECONDS (       0.0 SEC/ITER)
     TIME TO SOLVE SCF EQUATIONS=       0.0 SECONDS (       0.0 SEC/ITER)

 FINAL RHF ENERGY IS     -108.9466929554 AFTER   8 ITERATIONS

 LZ VALUE ANALYSIS FOR THE MOS
 ----------------------------------------
 MO     1 (    1) HAS LZ(WEIGHT)= 0.00(100.0%) 
 MO     2 (    2) HAS LZ(WEIGHT)= 0.00(100.0%) 
 MO     3 (    3) HAS LZ(WEIGHT)= 0.00(100.0%) 
 MO     4 (    4) HAS LZ(WEIGHT)= 0.00(100.0%) 
 MO     5 (    5) HAS LZ(WEIGHT)= 0.00(100.0%) 
 MO     6 (    6) HAS LZ(WEIGHT)= 0.00(100.0%) 
 MO     7 (    6) HAS LZ(WEIGHT)= 0.00(100.0%) 
 MO     8 (    7) HAS LZ(WEIGHT)= 0.00(100.0%) 
 MO     9 (    7) HAS LZ(WEIGHT)= 0.00(100.0%) 
 MO    10 (    8) HAS LZ(WEIGHT)= 0.00(100.0%) 
 MO    11 (    9) HAS LZ(WEIGHT)= 0.00(100.0%) 
 MO    12 (   10) HAS LZ(WEIGHT)= 0.00(100.0%) 
 MO    13 (   10) HAS LZ(WEIGHT)= 0.00(100.0%) 
 MO    14 (   11) HAS LZ(WEIGHT)= 0.00(100.0%) 
 MO    15 (   12) HAS LZ(WEIGHT)= 0.00(100.0%) 
 MO    16 (   12) HAS LZ(WEIGHT)= 0.00(100.0%) 
 MO    17 (   13) HAS LZ(WEIGHT)= 0.00(100.0%) 
 MO    18 (   14) HAS LZ(WEIGHT)= 0.00(100.0%) 
 MO    19 (   15) HAS LZ(WEIGHT)= 0.00(100.0%) 
 MO    20 (   15) HAS LZ(WEIGHT)= 0.00(100.0%) 
 MO    21 (   16) HAS LZ(WEIGHT)= 0.00(100.0%) 
 MO    22 (   16) HAS LZ(WEIGHT)= 0.00(100.0%) 
 MO    23 (   17) HAS LZ(WEIGHT)= 0.00(100.0%) 
 MO    24 (   17) HAS LZ(WEIGHT)= 0.00(100.0%) 
 MO    25 (   18) HAS LZ(WEIGHT)= 0.00(100.0%) 
 MO    26 (   19) HAS LZ(WEIGHT)= 0.00(100.0%) 
 MO    27 (   19) HAS LZ(WEIGHT)= 0.00(100.0%) 
 MO    28 (   20) HAS LZ(WEIGHT)= 0.00(100.0%) 
 MO    29 (   21) HAS LZ(WEIGHT)= 0.00(100.0%) 
 MO    30 (   21) HAS LZ(WEIGHT)= 0.00(100.0%) 
 MO    31 (   22) HAS LZ(WEIGHT)= 0.00(100.0%) 
 MO    32 (   23) HAS LZ(WEIGHT)= 0.00(100.0%) 
 MO    33 (   23) HAS LZ(WEIGHT)= 0.00(100.0%) 
 MO    34 (   24) HAS LZ(WEIGHT)= 0.00(100.0%) 
 MO    35 (   25) HAS LZ(WEIGHT)= 0.00(100.0%) 
 MO    36 (   26) HAS LZ(WEIGHT)= 0.00(100.0%) 
 MO    37 (   27) HAS LZ(WEIGHT)= 0.00(100.0%) 
 MO    38 (   28) HAS LZ(WEIGHT)= 0.00(100.0%) 

          ------------
          EIGENVECTORS
          ------------

                      1          2          3          4          5
                  -15.7051   -15.7026    -1.4263    -0.7980    -0.6256
                     A1         B1         A1         B1         A1  
    1  N  1  S    0.394409   0.394560  -0.085610  -0.081563  -0.028577
    2  N  1  S    0.331011   0.331247  -0.139718  -0.137754  -0.049709
    3  N  1  X   -0.001546  -0.001353  -0.092869   0.092416   0.208924
    4  N  1  Y    0.000000   0.000000   0.000000   0.000000   0.000000
    5  N  1  Z    0.000000   0.000000   0.000000   0.000000   0.000000
    6  N  1  S    0.003104   0.002507   0.389776   0.403222   0.129640
    7  N  1  X    0.000149   0.001367  -0.138141   0.139827   0.314896
    8  N  1  Y    0.000000   0.000000   0.000000   0.000000   0.000000
    9  N  1  Z    0.000000   0.000000   0.000000   0.000000   0.000000
   10  N  1  S    0.000155   0.000348   0.172185   0.435591   0.301224
   11  N  1  X   -0.000227  -0.000290  -0.028583   0.066539   0.192662
   12  N  1  Y    0.000000   0.000000   0.000000   0.000000   0.000000
   13  N  1  Z    0.000000   0.000000   0.000000   0.000000   0.000000
   14  N  1 XX    0.000307  -0.000489   0.030104  -0.009194  -0.029218
   15  N  1 YY   -0.000325  -0.000241  -0.009444   0.004149   0.007967
   16  N  1 ZZ   -0.000325  -0.000241  -0.009444   0.004149   0.007967
   17  N  1 XY    0.000000   0.000000   0.000000   0.000000   0.000000
   18  N  1 XZ    0.000000   0.000000   0.000000   0.000000   0.000000
   19  N  1 YZ    0.000000   0.000000   0.000000   0.000000   0.000000
   20  N  2  S    0.394409  -0.394560  -0.085610   0.081563  -0.028577
   21  N  2  S    0.331011  -0.331247  -0.139718   0.137754  -0.049709
   22  N  2  X    0.001546  -0.001353   0.092869   0.092416  -0.208924
   23  N  2  Y    0.000000   0.000000   0.000000   0.000000   0.000000
   24  N  2  Z    0.000000   0.000000   0.000000   0.000000   0.000000
   25  N  2  S    0.003104  -0.002507   0.389776  -0.403222   0.129640
   26  N  2  X   -0.000149   0.001367   0.138141   0.139827  -0.314896
   27  N  2  Y    0.000000   0.000000   0.000000   0.000000   0.000000
   28  N  2  Z    0.000000   0.000000   0.000000   0.000000   0.000000
   29  N  2  S    0.000155  -0.000348   0.172185  -0.435591   0.301224
   30  N  2  X    0.000227  -0.000290   0.028583   0.066539  -0.192662
   31  N  2  Y    0.000000   0.000000   0.000000   0.000000   0.000000
   32  N  2  Z    0.000000   0.000000   0.000000   0.000000   0.000000
   33  N  2 XX    0.000307   0.000489   0.030104   0.009194  -0.029218
   34  N  2 YY   -0.000325   0.000241  -0.009444  -0.004149   0.007967
   35  N  2 ZZ   -0.000325   0.000241  -0.009444  -0.004149   0.007967
   36  N  2 XY    0.000000   0.000000   0.000000   0.000000   0.000000
   37  N  2 XZ    0.000000   0.000000   0.000000   0.000000   0.000000
   38  N  2 YZ    0.000000   0.000000   0.000000   0.000000   0.000000

                      6          7          8          9         10
                   -0.5858    -0.5858     0.1328     0.1328     0.5320
                     A1         B2         A2         B1         B1  
    1  N  1  S    0.000000   0.000000   0.000000   0.000000  -0.051201
    2  N  1  S    0.000000   0.000000   0.000000   0.000000  -0.089478
    3  N  1  X    0.000000   0.000000   0.000000   0.000000  -0.063744
    4  N  1  Y    0.000000   0.187886   0.202255   0.000000   0.000000
    5  N  1  Z    0.187886   0.000000   0.000000   0.202255   0.000000
    6  N  1  S    0.000000   0.000000   0.000000   0.000000   0.236828
    7  N  1  X    0.000000   0.000000   0.000000   0.000000   0.015837
    8  N  1  Y    0.000000   0.306034   0.292894   0.000000   0.000000
    9  N  1  Z    0.306034   0.000000   0.000000   0.292894   0.000000
   10  N  1  S    0.000000   0.000000   0.000000   0.000000   3.455529
   11  N  1  X    0.000000   0.000000   0.000000   0.000000  -2.453469
   12  N  1  Y    0.000000   0.241706   0.638354   0.000000   0.000000
   13  N  1  Z    0.241706   0.000000   0.000000   0.638354   0.000000
   14  N  1 XX    0.000000   0.000000   0.000000   0.000000  -0.018228
   15  N  1 YY    0.000000   0.000000   0.000000   0.000000   0.006755
   16  N  1 ZZ    0.000000   0.000000   0.000000   0.000000   0.006755
   17  N  1 XY    0.000000  -0.043637   0.015123   0.000000   0.000000
   18  N  1 XZ   -0.043637   0.000000   0.000000   0.015123   0.000000
   19  N  1 YZ    0.000000   0.000000   0.000000   0.000000   0.000000
   20  N  2  S    0.000000   0.000000   0.000000   0.000000   0.051201
   21  N  2  S    0.000000   0.000000   0.000000   0.000000   0.089478
   22  N  2  X    0.000000   0.000000   0.000000   0.000000  -0.063744
   23  N  2  Y    0.000000   0.187886  -0.202255   0.000000   0.000000
   24  N  2  Z    0.187886   0.000000   0.000000  -0.202255   0.000000
   25  N  2  S    0.000000   0.000000   0.000000   0.000000  -0.236828
   26  N  2  X    0.000000   0.000000   0.000000   0.000000   0.015837
   27  N  2  Y    0.000000   0.306034  -0.292894   0.000000   0.000000
   28  N  2  Z    0.306034   0.000000   0.000000  -0.292894   0.000000
   29  N  2  S    0.000000   0.000000   0.000000   0.000000  -3.455529
   30  N  2  X    0.000000   0.000000   0.000000   0.000000  -2.453469
   31  N  2  Y    0.000000   0.241706  -0.638354   0.000000   0.000000
   32  N  2  Z    0.241706   0.000000   0.000000  -0.638354   0.000000
   33  N  2 XX    0.000000   0.000000   0.000000   0.000000   0.018228
   34  N  2 YY    0.000000   0.000000   0.000000   0.000000  -0.006755
   35  N  2 ZZ    0.000000   0.000000   0.000000   0.000000  -0.006755
   36  N  2 XY    0.000000   0.043637   0.015123   0.000000   0.000000
   37  N  2 XZ    0.043637   0.000000   0.000000   0.015123   0.000000
   38  N  2 YZ    0.000000   0.000000   0.000000   0.000000   0.000000

                     11         12         13         14         15
                    0.6776     0.7200     0.7200     0.7285     0.8809
                     A1         A1         B2         A1         B1  
    1  N  1  S   -0.038625   0.000000   0.000000   0.053952   0.000000
    2  N  1  S   -0.044051   0.000000   0.000000   0.068748   0.000000
    3  N  1  X   -0.042795   0.000000   0.000000  -0.103328   0.000000
    4  N  1  Y    0.000000   0.000000  -0.140946   0.000000   0.000000
    5  N  1  Z    0.000000  -0.140946   0.000000   0.000000  -0.183495
    6  N  1  S    0.632130   0.000000   0.000000  -0.604721   0.000000
    7  N  1  X   -0.292249   0.000000   0.000000  -0.389320   0.000000
    8  N  1  Y    0.000000   0.000000  -0.594862   0.000000   0.000000
    9  N  1  Z    0.000000  -0.594862   0.000000   0.000000  -0.655275
   10  N  1  S   -0.517184   0.000000   0.000000   0.900546   0.000000
   11  N  1  X    0.830071   0.000000   0.000000   0.637277   0.000000
   12  N  1  Y    0.000000   0.000000   0.690156   0.000000   0.000000
   13  N  1  Z    0.000000   0.690156   0.000000   0.000000   1.236797
   14  N  1 XX    0.150301   0.000000   0.000000  -0.119754   0.000000
   15  N  1 YY    0.099234   0.000000   0.000000  -0.119626   0.000000
   16  N  1 ZZ    0.099234   0.000000   0.000000  -0.119626   0.000000
   17  N  1 XY    0.000000   0.000000   0.061012   0.000000   0.000000
   18  N  1 XZ    0.000000   0.061012   0.000000   0.000000  -0.014501
   19  N  1 YZ    0.000000   0.000000   0.000000   0.000000   0.000000
   20  N  2  S   -0.038625   0.000000   0.000000   0.053952   0.000000
   21  N  2  S   -0.044051   0.000000   0.000000   0.068748   0.000000
   22  N  2  X    0.042795   0.000000   0.000000   0.103328   0.000000
   23  N  2  Y    0.000000   0.000000  -0.140946   0.000000   0.000000
   24  N  2  Z    0.000000  -0.140946   0.000000   0.000000   0.183495
   25  N  2  S    0.632130   0.000000   0.000000  -0.604721   0.000000
   26  N  2  X    0.292249   0.000000   0.000000   0.389320   0.000000
   27  N  2  Y    0.000000   0.000000  -0.594862   0.000000   0.000000
   28  N  2  Z    0.000000  -0.594862   0.000000   0.000000   0.655275
   29  N  2  S   -0.517184   0.000000   0.000000   0.900546   0.000000
   30  N  2  X   -0.830071   0.000000   0.000000  -0.637277   0.000000
   31  N  2  Y    0.000000   0.000000   0.690156   0.000000   0.000000
   32  N  2  Z    0.000000   0.690156   0.000000   0.000000  -1.236797
   33  N  2 XX    0.150301   0.000000   0.000000  -0.119754   0.000000
   34  N  2 YY    0.099234   0.000000   0.000000  -0.119626   0.000000
   35  N  2 ZZ    0.099234   0.000000   0.000000  -0.119626   0.000000
   36  N  2 XY    0.000000   0.000000  -0.061012   0.000000   0.000000
   37  N  2 XZ    0.000000  -0.061012   0.000000   0.000000  -0.014501
   38  N  2 YZ    0.000000   0.000000   0.000000   0.000000   0.000000

                     16         17         18         19         20
                    0.8809     0.9334     1.2362     1.9555     1.9555
                     A2         B1         B1         A1         B2  
    1  N  1  S    0.000000   0.011664   0.074552   0.000000   0.000000
    2  N  1  S    0.000000  -0.002001   0.103732   0.000000   0.000000
    3  N  1  X    0.000000  -0.223302   0.190521   0.000000   0.000000
    4  N  1  Y   -0.183495   0.000000   0.000000   0.000000   0.087302
    5  N  1  Z    0.000000   0.000000   0.000000   0.087302   0.000000
    6  N  1  S    0.000000  -0.414821  -1.140599   0.000000   0.000000
    7  N  1  X    0.000000  -0.641700   0.389323   0.000000   0.000000
    8  N  1  Y   -0.655275   0.000000   0.000000   0.000000   0.160260
    9  N  1  Z    0.000000   0.000000   0.000000   0.160260   0.000000
   10  N  1  S    0.000000   2.648365   5.748039   0.000000   0.000000
   11  N  1  X    0.000000  -0.668372  -2.773439   0.000000   0.000000
   12  N  1  Y    1.236797   0.000000   0.000000   0.000000  -0.047834
   13  N  1  Z    0.000000   0.000000   0.000000  -0.047834   0.000000
   14  N  1 XX    0.000000  -0.170949  -0.065530   0.000000   0.000000
   15  N  1 YY    0.000000  -0.078925  -0.227032   0.000000   0.000000
   16  N  1 ZZ    0.000000  -0.078925  -0.227032   0.000000   0.000000
   17  N  1 XY   -0.014501   0.000000   0.000000   0.000000   0.607471
   18  N  1 XZ    0.000000   0.000000   0.000000   0.607471   0.000000
   19  N  1 YZ    0.000000   0.000000   0.000000   0.000000   0.000000
   20  N  2  S    0.000000  -0.011664  -0.074552   0.000000   0.000000
   21  N  2  S    0.000000   0.002001  -0.103732   0.000000   0.000000
   22  N  2  X    0.000000  -0.223302   0.190521   0.000000   0.000000
   23  N  2  Y    0.183495   0.000000   0.000000   0.000000   0.087302
   24  N  2  Z    0.000000   0.000000   0.000000   0.087302   0.000000
   25  N  2  S    0.000000   0.414821   1.140599   0.000000   0.000000
   26  N  2  X    0.000000  -0.641700   0.389323   0.000000   0.000000
   27  N  2  Y    0.655275   0.000000   0.000000   0.000000   0.160260
   28  N  2  Z    0.000000   0.000000   0.000000   0.160260   0.000000
   29  N  2  S    0.000000  -2.648365  -5.748039   0.000000   0.000000
   30  N  2  X    0.000000  -0.668372  -2.773439   0.000000   0.000000
   31  N  2  Y   -1.236797   0.000000   0.000000   0.000000  -0.047834
   32  N  2  Z    0.000000   0.000000   0.000000  -0.047834   0.000000
   33  N  2 XX    0.000000   0.170949   0.065530   0.000000   0.000000
   34  N  2 YY    0.000000   0.078925   0.227032   0.000000   0.000000
   35  N  2 ZZ    0.000000   0.078925   0.227032   0.000000   0.000000
   36  N  2 XY   -0.014501   0.000000   0.000000   0.000000  -0.607471
   37  N  2 XZ    0.000000   0.000000   0.000000  -0.607471   0.000000
   38  N  2 YZ    0.000000   0.000000   0.000000   0.000000   0.000000

                     21         22         23         24         25
                    1.9905     1.9905     2.4514     2.4514     2.6682
                     B2         A1         A2         B1         A1  
    1  N  1  S    0.000000   0.000000   0.000000   0.000000   0.002755
    2  N  1  S    0.000000   0.000000   0.000000   0.000000  -0.018440
    3  N  1  X    0.000000   0.000000   0.000000   0.000000  -0.101136
    4  N  1  Y    0.000000   0.000000   0.000000   0.000000   0.000000
    5  N  1  Z    0.000000   0.000000   0.000000   0.000000   0.000000
    6  N  1  S    0.000000   0.000000   0.000000   0.000000  -0.249641
    7  N  1  X    0.000000   0.000000   0.000000   0.000000   0.432010
    8  N  1  Y    0.000000   0.000000   0.000000   0.000000   0.000000
    9  N  1  Z    0.000000   0.000000   0.000000   0.000000   0.000000
   10  N  1  S    0.000000   0.000000   0.000000   0.000000   0.259695
   11  N  1  X    0.000000   0.000000   0.000000   0.000000  -0.510247
   12  N  1  Y    0.000000   0.000000   0.000000   0.000000   0.000000
   13  N  1  Z    0.000000   0.000000   0.000000   0.000000   0.000000
   14  N  1 XX    0.000000   0.000000   0.000000   0.000000   0.597089
   15  N  1 YY    0.000000  -0.581284   0.000000   0.649050  -0.508641
   16  N  1 ZZ    0.000000   0.581284   0.000000  -0.649050  -0.508641
   17  N  1 XY    0.000000   0.000000   0.000000   0.000000   0.000000
   18  N  1 XZ    0.000000   0.000000   0.000000   0.000000   0.000000
   19  N  1 YZ    0.671209   0.000000   0.749458   0.000000   0.000000
   20  N  2  S    0.000000   0.000000   0.000000   0.000000   0.002755
   21  N  2  S    0.000000   0.000000   0.000000   0.000000  -0.018440
   22  N  2  X    0.000000   0.000000   0.000000   0.000000   0.101136
   23  N  2  Y    0.000000   0.000000   0.000000   0.000000   0.000000
   24  N  2  Z    0.000000   0.000000   0.000000   0.000000   0.000000
   25  N  2  S    0.000000   0.000000   0.000000   0.000000  -0.249641
   26  N  2  X    0.000000   0.000000   0.000000   0.000000  -0.432010
   27  N  2  Y    0.000000   0.000000   0.000000   0.000000   0.000000
   28  N  2  Z    0.000000   0.000000   0.000000   0.000000   0.000000
   29  N  2  S    0.000000   0.000000   0.000000   0.000000   0.259695
   30  N  2  X    0.000000   0.000000   0.000000   0.000000   0.510247
   31  N  2  Y    0.000000   0.000000   0.000000   0.000000   0.000000
   32  N  2  Z    0.000000   0.000000   0.000000   0.000000   0.000000
   33  N  2 XX    0.000000   0.000000   0.000000   0.000000   0.597089
   34  N  2 YY    0.000000  -0.581284   0.000000  -0.649050  -0.508641
   35  N  2 ZZ    0.000000   0.581284   0.000000   0.649050  -0.508641
   36  N  2 XY    0.000000   0.000000   0.000000   0.000000   0.000000
   37  N  2 XZ    0.000000   0.000000   0.000000   0.000000   0.000000
   38  N  2 YZ    0.671209   0.000000  -0.749458   0.000000   0.000000

                     26         27         28         29         30
                    3.1056     3.1056     3.3773     3.9698     3.9698
                     B1         A2         B1         A1         B2  
    1  N  1  S    0.000000   0.000000  -0.026742   0.000000   0.000000
    2  N  1  S    0.000000   0.000000  -0.054245   0.000000   0.000000
    3  N  1  X    0.000000   0.000000  -0.472317   0.000000   0.000000
    4  N  1  Y    0.000000  -0.204851   0.000000   0.000000  -0.909786
    5  N  1  Z   -0.204851   0.000000   0.000000  -0.909786   0.000000
    6  N  1  S    0.000000   0.000000   0.235668   0.000000   0.000000
    7  N  1  X    0.000000   0.000000  -0.304819   0.000000   0.000000
    8  N  1  Y    0.000000   0.056848   0.000000   0.000000   0.943618
    9  N  1  Z    0.056848   0.000000   0.000000   0.943618   0.000000
   10  N  1  S    0.000000   0.000000   2.439535   0.000000   0.000000
   11  N  1  X    0.000000   0.000000  -1.325613   0.000000   0.000000
   12  N  1  Y    0.000000  -0.388386   0.000000   0.000000  -0.329699
   13  N  1  Z   -0.388386   0.000000   0.000000  -0.329699   0.000000
   14  N  1 XX    0.000000   0.000000   1.044452   0.000000   0.000000
   15  N  1 YY    0.000000   0.000000  -0.480379   0.000000   0.000000
   16  N  1 ZZ    0.000000   0.000000  -0.480379   0.000000   0.000000
   17  N  1 XY    0.000000   0.931917   0.000000   0.000000   0.086594
   18  N  1 XZ    0.931917   0.000000   0.000000   0.086594   0.000000
   19  N  1 YZ    0.000000   0.000000   0.000000   0.000000   0.000000
   20  N  2  S    0.000000   0.000000   0.026742   0.000000   0.000000
   21  N  2  S    0.000000   0.000000   0.054245   0.000000   0.000000
   22  N  2  X    0.000000   0.000000  -0.472317   0.000000   0.000000
   23  N  2  Y    0.000000   0.204851   0.000000   0.000000  -0.909786
   24  N  2  Z    0.204851   0.000000   0.000000  -0.909786   0.000000
   25  N  2  S    0.000000   0.000000  -0.235668   0.000000   0.000000
   26  N  2  X    0.000000   0.000000  -0.304819   0.000000   0.000000
   27  N  2  Y    0.000000  -0.056848   0.000000   0.000000   0.943618
   28  N  2  Z   -0.056848   0.000000   0.000000   0.943618   0.000000
   29  N  2  S    0.000000   0.000000  -2.439535   0.000000   0.000000
   30  N  2  X    0.000000   0.000000  -1.325613   0.000000   0.000000
   31  N  2  Y    0.000000   0.388386   0.000000   0.000000  -0.329699
   32  N  2  Z    0.388386   0.000000   0.000000  -0.329699   0.000000
   33  N  2 XX    0.000000   0.000000  -1.044452   0.000000   0.000000
   34  N  2 YY    0.000000   0.000000   0.480379   0.000000   0.000000
   35  N  2 ZZ    0.000000   0.000000   0.480379   0.000000   0.000000
   36  N  2 XY    0.000000   0.931917   0.000000   0.000000  -0.086594
   37  N  2 XZ    0.931917   0.000000   0.000000  -0.086594   0.000000
   38  N  2 YZ    0.000000   0.000000   0.000000   0.000000   0.000000

                     31         32         33         34         35
                    4.1833     4.2951     4.2951     4.3627     4.6460
                     A1         B1         A2         B1         A1  
    1  N  1  S   -0.093754   0.000000   0.000000  -0.109070  -0.088301
    2  N  1  S   -0.345341   0.000000   0.000000  -0.381409  -0.309005
    3  N  1  X    0.593339   0.000000   0.000000   0.481080  -0.741936
    4  N  1  Y    0.000000   0.000000  -0.909076   0.000000   0.000000
    5  N  1  Z    0.000000  -0.909076   0.000000   0.000000   0.000000
    6  N  1  S    1.237218   0.000000   0.000000   1.368510   1.268391
    7  N  1  X   -0.604618   0.000000   0.000000  -0.889536   0.617006
    8  N  1  Y    0.000000   0.000000   1.150536   0.000000   0.000000
    9  N  1  Z    0.000000   1.150536   0.000000   0.000000   0.000000
   10  N  1  S    0.513235   0.000000   0.000000   2.377812   0.243482
   11  N  1  X    0.211201   0.000000   0.000000  -0.705669  -0.282563
   12  N  1  Y    0.000000   0.000000  -0.482715   0.000000   0.000000
   13  N  1  Z    0.000000  -0.482715   0.000000   0.000000   0.000000
   14  N  1 XX   -0.699599   0.000000   0.000000  -0.409933  -0.728695
   15  N  1 YY   -0.774772   0.000000   0.000000  -0.980694  -0.571623
   16  N  1 ZZ   -0.774772   0.000000   0.000000  -0.980694  -0.571623
   17  N  1 XY    0.000000   0.000000  -0.324370   0.000000   0.000000
   18  N  1 XZ    0.000000  -0.324370   0.000000   0.000000   0.000000
   19  N  1 YZ    0.000000   0.000000   0.000000   0.000000   0.000000
   20  N  2  S   -0.093754   0.000000   0.000000   0.109070  -0.088301
   21  N  2  S   -0.345341   0.000000   0.000000   0.381409  -0.309005
   22  N  2  X   -0.593339   0.000000   0.000000   0.481080   0.741936
   23  N  2  Y    0.000000   0.000000   0.909076   0.000000   0.000000
   24  N  2  Z    0.000000   0.909076   0.000000   0.000000   0.000000
   25  N  2  S    1.237218   0.000000   0.000000  -1.368510   1.268391
   26  N  2  X    0.604618   0.000000   0.000000  -0.889536  -0.617006
   27  N  2  Y    0.000000   0.000000  -1.150536   0.000000   0.000000
   28  N  2  Z    0.000000  -1.150536   0.000000   0.000000   0.000000
   29  N  2  S    0.513235   0.000000   0.000000  -2.377812   0.243482
   30  N  2  X   -0.211201   0.000000   0.000000  -0.705669   0.282563
   31  N  2  Y    0.000000   0.000000   0.482715   0.000000   0.000000
   32  N  2  Z    0.000000   0.482715   0.000000   0.000000   0.000000
   33  N  2 XX   -0.699599   0.000000   0.000000   0.409933  -0.728695
   34  N  2 YY   -0.774772   0.000000   0.000000   0.980694  -0.571623
   35  N  2 ZZ   -0.774772   0.000000   0.000000   0.980694  -0.571623
   36  N  2 XY    0.000000   0.000000  -0.324370   0.000000   0.000000
   37  N  2 XZ    0.000000  -0.324370   0.000000   0.000000   0.000000
   38  N  2 YZ    0.000000   0.000000   0.000000   0.000000   0.000000

                     36         37         38
                    6.0011    40.3610    40.6189
                     B1         A1         B1  
    1  N  1  S   -0.049973  -1.567336  -1.571322
    2  N  1  S   -0.272223   1.839199   1.857253
    3  N  1  X   -0.798354   0.022973   0.045729
    4  N  1  Y    0.000000   0.000000   0.000000
    5  N  1  Z    0.000000   0.000000   0.000000
    6  N  1  S    0.375514  -0.766843  -0.687036
    7  N  1  X    3.130651  -0.005073  -0.303284
    8  N  1  Y    0.000000   0.000000   0.000000
    9  N  1  Z    0.000000   0.000000   0.000000
   10  N  1  S    0.423626  -0.150787  -0.652836
   11  N  1  X   -0.332640   0.018004   0.242998
   12  N  1  Y    0.000000   0.000000   0.000000
   13  N  1  Z    0.000000   0.000000   0.000000
   14  N  1 XX   -2.644515   0.358588   0.589383
   15  N  1 YY   -0.408297   0.351616   0.390081
   16  N  1 ZZ   -0.408297   0.351616   0.390081
   17  N  1 XY    0.000000   0.000000   0.000000
   18  N  1 XZ    0.000000   0.000000   0.000000
   19  N  1 YZ    0.000000   0.000000   0.000000
   20  N  2  S    0.049973  -1.567336   1.571322
   21  N  2  S    0.272223   1.839199  -1.857253
   22  N  2  X   -0.798354  -0.022973   0.045729
   23  N  2  Y    0.000000   0.000000   0.000000
   24  N  2  Z    0.000000   0.000000   0.000000
   25  N  2  S   -0.375514  -0.766843   0.687036
   26  N  2  X    3.130651   0.005073  -0.303284
   27  N  2  Y    0.000000   0.000000   0.000000
   28  N  2  Z    0.000000   0.000000   0.000000
   29  N  2  S   -0.423626  -0.150787   0.652836
   30  N  2  X   -0.332640  -0.018004   0.242998
   31  N  2  Y    0.000000   0.000000   0.000000
   32  N  2  Z    0.000000   0.000000   0.000000
   33  N  2 XX    2.644515   0.358588  -0.589383
   34  N  2 YY    0.408297   0.351616  -0.390081
   35  N  2 ZZ    0.408297   0.351616  -0.390081
   36  N  2 XY    0.000000   0.000000   0.000000
   37  N  2 XZ    0.000000   0.000000   0.000000
   38  N  2 YZ    0.000000   0.000000   0.000000
 ...... END OF RHF CALCULATION ......
 CPU     0: STEP CPU TIME=     0.00 TOTAL CPU TIME=          0.1 (      0.0 MIN)
 TOTAL WALL CLOCK TIME=          0.1 SECONDS, CPU UTILIZATION IS    56.82%

     ----------------------------------------------------------------
     PROPERTY VALUES FOR THE RHF   SELF-CONSISTENT FIELD WAVEFUNCTION
     ----------------------------------------------------------------

          -----------------
          ENERGY COMPONENTS
          -----------------

         WAVEFUNCTION NORMALIZATION =       1.0000000000

                ONE ELECTRON ENERGY =    -191.5864778762
                TWO ELECTRON ENERGY =      60.3640824533
           NUCLEAR REPULSION ENERGY =      22.2757024676
                                      ------------------
                       TOTAL ENERGY =    -108.9466929554

 ELECTRON-ELECTRON POTENTIAL ENERGY =      60.3640824533
  NUCLEUS-ELECTRON POTENTIAL ENERGY =    -299.9751288818
   NUCLEUS-NUCLEUS POTENTIAL ENERGY =      22.2757024676
                                      ------------------
             TOTAL POTENTIAL ENERGY =    -217.3353439610
               TOTAL KINETIC ENERGY =     108.3886510056
                 VIRIAL RATIO (V/T) =       2.0051485275

  ...... PI ENERGY ANALYSIS ......

 ENERGY ANALYSIS:
            FOCK ENERGY=    -70.8583119427
          BARE H ENERGY=   -191.5864778762
     ELECTRONIC ENERGY =   -131.2223949095
         KINETIC ENERGY=    108.3886510056
          N-N REPULSION=     22.2757024676
           TOTAL ENERGY=   -108.9466924419
        SIGMA PART(1+2)=   -114.4390711337
               (K,V1,2)=    102.0535242639   -262.4164165651     45.9238211675
           PI PART(1+2)=    -16.7833237758
               (K,V1,2)=      6.3351267417    -37.5587123168     14.4402617993
  SIGMA SKELETON, ERROR=    -92.1633686661      0.0000000000
             MIXED PART= 0.00000E+00 0.00000E+00 0.00000E+00 0.00000E+00
 ...... END OF PI ENERGY ANALYSIS ......

          ---------------------------------------
          MULLIKEN AND LOWDIN POPULATION ANALYSES
          ---------------------------------------

     ATOMIC MULLIKEN POPULATION IN EACH MOLECULAR ORBITAL

                      1          2          3          4          5

                  2.000000   2.000000   2.000000   2.000000   2.000000

    1             1.000000   1.000000   1.000000   1.000000   1.000000
    2             1.000000   1.000000   1.000000   1.000000   1.000000

                      6          7

                  2.000000   2.000000

    1             1.000000   1.000000
    2             1.000000   1.000000

               ----- POPULATIONS IN EACH AO -----
                             MULLIKEN      LOWDIN
              1  N  1  S      1.09561     1.04207
              2  N  1  S      0.89893     0.92262
              3  N  1  X      0.30112     0.30154
              4  N  1  Y      0.17623     0.17793
              5  N  1  Z      0.17623     0.17793
              6  N  1  S      0.98667     0.57613
              7  N  1  X      0.66057     0.64775
              8  N  1  Y      0.44698     0.42202
              9  N  1  Z      0.44698     0.42202
             10  N  1  S      0.82664     0.50885
             11  N  1  X      0.20661     0.38446
             12  N  1  Y      0.35920     0.37900
             13  N  1  Z      0.35920     0.37900
             14  N  1 XX      0.02844     0.23333
             15  N  1 YY     -0.00229     0.19163
             16  N  1 ZZ     -0.00229     0.19163
             17  N  1 XY      0.01759     0.02104
             18  N  1 XZ      0.01759     0.02104
             19  N  1 YZ      0.00000     0.00000
             20  N  2  S      1.09561     1.04207
             21  N  2  S      0.89893     0.92262
             22  N  2  X      0.30112     0.30154
             23  N  2  Y      0.17623     0.17793
             24  N  2  Z      0.17623     0.17793
             25  N  2  S      0.98667     0.57613
             26  N  2  X      0.66057     0.64775
             27  N  2  Y      0.44698     0.42202
             28  N  2  Z      0.44698     0.42202
             29  N  2  S      0.82664     0.50885
             30  N  2  X      0.20661     0.38446
             31  N  2  Y      0.35920     0.37900
             32  N  2  Z      0.35920     0.37900
             33  N  2 XX      0.02844     0.23333
             34  N  2 YY     -0.00229     0.19163
             35  N  2 ZZ     -0.00229     0.19163
             36  N  2 XY      0.01759     0.02104
             37  N  2 XZ      0.01759     0.02104
             38  N  2 YZ      0.00000     0.00000

          ----- MULLIKEN ATOMIC OVERLAP POPULATIONS -----
          (OFF-DIAGONAL ELEMENTS NEED TO BE MULTIPLIED BY 2)

             1           2

    1    6.3912828
    2    0.6087172   6.3912828

          TOTAL MULLIKEN AND LOWDIN ATOMIC POPULATIONS
       ATOM         MULL.POP.    CHARGE          LOW.POP.     CHARGE
    1 N             7.000000    0.000000         7.000000    0.000000
    2 N             7.000000    0.000000         7.000000    0.000000

          -------------------------------
          BOND ORDER AND VALENCE ANALYSIS     BOND ORDER THRESHOLD=0.050
          -------------------------------

                   BOND                       BOND                       BOND
  ATOM PAIR DIST  ORDER      ATOM PAIR DIST  ORDER      ATOM PAIR DIST  ORDER
    1   2  1.164  2.814

                       TOTAL       BONDED        FREE
      ATOM            VALENCE     VALENCE     VALENCE
    1 N                 2.814       2.814       0.000
    2 N                 2.814       2.814       0.000

          ---------------------
          ELECTROSTATIC MOMENTS
          ---------------------

 POINT   1           X           Y           Z (BOHR)    CHARGE
                 0.000000   -0.000000    0.000000        0.00 (A.U.)
         DX          DY          DZ         /D/  (DEBYE)
     0.000000   -0.000000    0.000000    0.000000
 ...... END OF PROPERTY EVALUATION ......
 CPU     0: STEP CPU TIME=     0.02 TOTAL CPU TIME=          0.1 (      0.0 MIN)
 TOTAL WALL CLOCK TIME=          0.1 SECONDS, CPU UTILIZATION IS    67.35%

 BEGINNING ONE ELECTRON GRADIENT...
 ..... END OF 1-ELECTRON GRADIENT ......
 CPU     0: STEP CPU TIME=     0.00 TOTAL CPU TIME=          0.1 (      0.0 MIN)
 TOTAL WALL CLOCK TIME=          0.1 SECONDS, CPU UTILIZATION IS    66.77%

          ----------------------
          GRADIENT OF THE ENERGY
          ----------------------

 THE MINIMUM MEMORY REQUIRED FOR THIS RUN IS      73397 WORDS.
 USING     987947 WORDS FOR 2E- DERIVATIVE INTEGRAL CONTRIBUTIONS.
 THE COARSE/FINE SCHWARZ SCREENINGS SKIPPED            0/           0 BLOCKS.
 THE NUMBER OF GRADIENT INTEGRAL BLOCKS COMPUTED WAS       670
 ...... END OF 2-ELECTRON GRADIENT ......
 CPU     0: STEP CPU TIME=     0.00 TOTAL CPU TIME=          0.1 (      0.0 MIN)
 TOTAL WALL CLOCK TIME=          0.1 SECONDS, CPU UTILIZATION IS    62.50%

          NSERCH=  0     ENERGY=    -108.9466930

                                 -----------------------
                                 GRADIENT (HARTREE/BOHR)
                                 -----------------------
        ATOM     ZNUC       DE/DX         DE/DY         DE/DZ
 --------------------------------------------------------------
    1  N            7.0     0.2588524     0.0000000     0.0000000
    2  N            7.0    -0.2588524     0.0000000     0.0000000

          MAXIMUM GRADIENT = 0.2588524    RMS GRADIENT = 0.1494485

 NSERCH:   0  E=     -108.9466929554  GRAD. MAX=  0.2588524  R.M.S.=  0.1494485

          FORCE CONSTANT MATRIX NOT UPDATED --- TAKING FIRST STEP
          MIN SEARCH, CORRECT HESSIAN, TRYING PURE NR STEP
               NR STEP HAS LENGTH         =   0.321289
          TRIM/QA LAMBDA FOR NON-TS MODES =  -0.08085478
          TRIM/QA STEP HAS LENGTH         =   0.300000
          RADIUS OF STEP TAKEN=   0.30000  CURRENT TRUST RADIUS=   0.30000

 BEGINNING GEOMETRY SEARCH POINT NSERCH=   1 ...

 COORDINATES OF SYMMETRY UNIQUE ATOMS (ANGS)
   ATOM   CHARGE       X              Y              Z
 ------------------------------------------------------------
 N           7.0  -0.4697617818   0.0000000000   0.0000000000
 COORDINATES OF ALL ATOMS ARE (ANGS)
   ATOM   CHARGE       X              Y              Z
 ------------------------------------------------------------
 N           7.0   0.4697617818  -0.0000000000   0.0000000000
 N           7.0  -0.4697617818   0.0000000000   0.0000000000

          INTERNUCLEAR DISTANCES (ANGS.)
          ------------------------------

                1 N          2 N     

   1 N       0.0000000    0.9395236 *
   2 N       0.9395236 *  0.0000000  

  * ... LESS THAN  3.000

 ...... END OF ONE-ELECTRON INTEGRALS ......
 CPU     0: STEP CPU TIME=     0.00 TOTAL CPU TIME=          0.1 (      0.0 MIN)
 TOTAL WALL CLOCK TIME=          0.1 SECONDS, CPU UTILIZATION IS    61.52%
 TOTAL NUMBER OF NONZERO TWO-ELECTRON INTEGRALS =               37617
          4 INTEGRAL RECORDS WERE STORED ON DISK FILE  8.
  ...... END OF TWO-ELECTRON INTEGRALS .....
 CPU     0: STEP CPU TIME=     0.02 TOTAL CPU TIME=          0.1 (      0.0 MIN)
 TOTAL WALL CLOCK TIME=          0.1 SECONDS, CPU UTILIZATION IS    71.56%

          --------------------------
                 RHF SCF CALCULATION
          --------------------------
     DENSITY MATRIX CONV=  5.00E-04

 ITER EX DEM     TOTAL ENERGY        E CHANGE  DENSITY CHANGE     ORB. GRAD
          ---------------START SECOND ORDER SCF---------------
   1  0  0     -108.8366352532  -108.8366352532   0.118673185   0.139506399
   2  1  0     -108.8866322905    -0.0499970373   0.043991554   0.027508172
   3  2  0     -108.8899232293    -0.0032909388   0.006033633   0.006460538
   4  3  0     -108.8899837710    -0.0000605417   0.002391464   0.000530984
   5  4  0     -108.8899857138    -0.0000019427   0.001160347   0.000147412
   6  5  0     -108.8899857761    -0.0000000623   0.000457827   0.000029911
   7  6  0     -108.8899857799    -0.0000000038   0.000064414   0.000028661

          -----------------
          DENSITY CONVERGED
          -----------------
     TIME TO FORM FOCK OPERATORS=       0.0 SECONDS (       0.0 SEC/ITER)
     TIME TO SOLVE SCF EQUATIONS=       0.0 SECONDS (       0.0 SEC/ITER)

 FINAL RHF ENERGY IS     -108.8899857799 AFTER   7 ITERATIONS

 LZ VALUE ANALYSIS FOR THE MOS
 ----------------------------------------
 MO     1 (    1) HAS LZ(WEIGHT)= 0.00(100.0%) 
 MO     2 (    2) HAS LZ(WEIGHT)= 0.00(100.0%) 
 MO     3 (    3) HAS LZ(WEIGHT)= 0.00(100.0%) 
 MO     4 (    4) HAS LZ(WEIGHT)= 0.00(100.0%) 
 MO     5 (    5) HAS LZ(WEIGHT)= 0.00(100.0%) 
 MO     6 (    5) HAS LZ(WEIGHT)= 0.00(100.0%) 
 MO     7 (    6) HAS LZ(WEIGHT)= 0.00(100.0%) 
 MO     8 (    7) HAS LZ(WEIGHT)= 0.00(100.0%) 
 MO     9 (    7) HAS LZ(WEIGHT)= 0.00(100.0%) 
 MO    10 (    8) HAS LZ(WEIGHT)= 0.00(100.0%) 
 MO    11 (    9) HAS LZ(WEIGHT)= 0.00(100.0%) 
 MO    12 (   10) HAS LZ(WEIGHT)= 0.00(100.0%) 
 MO    13 (   10) HAS LZ(WEIGHT)= 0.00(100.0%) 
 MO    14 (   11) HAS LZ(WEIGHT)= 0.00(100.0%) 
 MO    15 (   12) HAS LZ(WEIGHT)= 0.00(100.0%) 
 MO    16 (   12) HAS LZ(WEIGHT)= 0.00(100.0%) 
 MO    17 (   13) HAS LZ(WEIGHT)= 0.00(100.0%) 
 MO    18 (   14) HAS LZ(WEIGHT)= 0.00(100.0%) 
 MO    19 (   15) HAS LZ(WEIGHT)= 0.00(100.0%) 
 MO    20 (   15) HAS LZ(WEIGHT)= 0.00(100.0%) 
 MO    21 (   16) HAS LZ(WEIGHT)= 0.00(100.0%) 
 MO    22 (   16) HAS LZ(WEIGHT)= 0.00(100.0%) 
 MO    23 (   17) HAS LZ(WEIGHT)= 0.00(100.0%) 
 MO    24 (   17) HAS LZ(WEIGHT)= 0.00(100.0%) 
 MO    25 (   18) HAS LZ(WEIGHT)= 0.00(100.0%) 
 MO    26 (   19) HAS LZ(WEIGHT)= 0.00(100.0%) 
 MO    27 (   19) HAS LZ(WEIGHT)= 0.00(100.0%) 
 MO    28 (   20) HAS LZ(WEIGHT)= 0.00(100.0%) 
 MO    29 (   21) HAS LZ(WEIGHT)= 0.00(100.0%) 
 MO    30 (   21) HAS LZ(WEIGHT)= 0.00(100.0%) 
 MO    31 (   22) HAS LZ(WEIGHT)= 0.00(100.0%) 
 MO    32 (   23) HAS LZ(WEIGHT)= 0.00(100.0%) 
 MO    33 (   24) HAS LZ(WEIGHT)= 0.00(100.0%) 
 MO    34 (   24) HAS LZ(WEIGHT)= 0.00(100.0%) 
 MO    35 (   25) HAS LZ(WEIGHT)= 0.00(100.0%) 
 MO    36 (   26) HAS LZ(WEIGHT)= 0.00(100.0%) 
 MO    37 (   27) HAS LZ(WEIGHT)= 0.00(100.0%) 
 MO    38 (   28) HAS LZ(WEIGHT)= 0.00(100.0%) 
 ...... END OF RHF CALCULATION ......
 CPU     0: STEP CPU TIME=     0.00 TOTAL CPU TIME=          0.1 (      0.0 MIN)
 TOTAL WALL CLOCK TIME=          0.1 SECONDS, CPU UTILIZATION IS    69.44%
 ..... END OF 1-ELECTRON GRADIENT ......
 CPU     0: STEP CPU TIME=     0.00 TOTAL CPU TIME=          0.1 (      0.0 MIN)
 TOTAL WALL CLOCK TIME=          0.1 SECONDS, CPU UTILIZATION IS    68.93%
 ...... END OF 2-ELECTRON GRADIENT ......
 CPU     0: STEP CPU TIME=     0.00 TOTAL CPU TIME=          0.1 (      0.0 MIN)
 TOTAL WALL CLOCK TIME=          0.1 SECONDS, CPU UTILIZATION IS    66.02%

          NSERCH=  1     ENERGY=    -108.8899858

                                 -----------------------
                                 GRADIENT (HARTREE/BOHR)
                                 -----------------------
        ATOM     ZNUC       DE/DX         DE/DY         DE/DZ
 --------------------------------------------------------------
    1  N            7.0    -0.7676762     0.0000000     0.0000000
    2  N            7.0     0.7676762     0.0000000     0.0000000

          MAXIMUM GRADIENT = 0.7676762    RMS GRADIENT = 0.4432180

 NSERCH:   1  E=     -108.8899857799  GRAD. MAX=  0.7676762  R.M.S.=  0.4432180

          HESSIAN UPDATED USING THE BFGS FORMULA
             ACTUAL ENERGY CHANGE WAS   0.0567071755
          PREDICTED ENERGY CHANGE WAS  -0.0585493599 RATIO= -0.969
          MIN SEARCH, CORRECT HESSIAN, TRYING PURE NR STEP
               NR STEP HAS LENGTH         =   0.224351
          TRIM/QA LAMBDA FOR NON-TS MODES =  -2.39861809
          TRIM/QA STEP HAS LENGTH         =   0.150000
          RADIUS OF STEP TAKEN=   0.15000  CURRENT TRUST RADIUS=   0.15000

 BEGINNING GEOMETRY SEARCH POINT NSERCH=   2 ...

 COORDINATES OF SYMMETRY UNIQUE ATOMS (ANGS)
   ATOM   CHARGE       X              Y              Z
 ------------------------------------------------------------
 N           7.0  -0.5258895050   0.0000000000   0.0000000000
 COORDINATES OF ALL ATOMS ARE (ANGS)
   ATOM   CHARGE       X              Y              Z
 ------------------------------------------------------------
 N           7.0   0.5258895050  -0.0000000000   0.0000000000
 N           7.0  -0.5258895050   0.0000000000   0.0000000000

          INTERNUCLEAR DISTANCES (ANGS.)
          ------------------------------

                1 N          2 N     

   1 N       0.0000000    1.0517790 *
   2 N       1.0517790 *  0.0000000  

  * ... LESS THAN  3.000

 ...... END OF ONE-ELECTRON INTEGRALS ......
 CPU     0: STEP CPU TIME=     0.02 TOTAL CPU TIME=          0.1 (      0.0 MIN)
 TOTAL WALL CLOCK TIME=          0.1 SECONDS, CPU UTILIZATION IS    76.49%
 TOTAL NUMBER OF NONZERO TWO-ELECTRON INTEGRALS =               37617
          4 INTEGRAL RECORDS WERE STORED ON DISK FILE  8.
  ...... END OF TWO-ELECTRON INTEGRALS .....
 CPU     0: STEP CPU TIME=     0.00 TOTAL CPU TIME=          0.1 (      0.0 MIN)
 TOTAL WALL CLOCK TIME=          0.1 SECONDS, CPU UTILIZATION IS    74.91%

          --------------------------
                 RHF SCF CALCULATION
          --------------------------
     DENSITY MATRIX CONV=  5.00E-04

 ITER EX DEM     TOTAL ENERGY        E CHANGE  DENSITY CHANGE     ORB. GRAD
          ---------------START SECOND ORDER SCF---------------
   1  0  0     -108.9549038198  -108.9549038198   0.039756824   0.089928798
   2  1  0     -108.9696524550    -0.0147486352   0.029825198   0.016812040
   3  2  0     -108.9706837390    -0.0010312839   0.007782071   0.004851493
   4  3  0     -108.9707407177    -0.0000569787   0.000479019   0.000693914
   5  4  0     -108.9707414920    -0.0000007744   0.000052838   0.000119358
   6  5  0     -108.9707415147    -0.0000000226   0.000009437   0.000008018

          -----------------
          DENSITY CONVERGED
          -----------------
     TIME TO FORM FOCK OPERATORS=       0.0 SECONDS (       0.0 SEC/ITER)
     TIME TO SOLVE SCF EQUATIONS=       0.0 SECONDS (       0.0 SEC/ITER)

 FINAL RHF ENERGY IS     -108.9707415147 AFTER   6 ITERATIONS

 LZ VALUE ANALYSIS FOR THE MOS
 ----------------------------------------
 MO     1 (    1) HAS LZ(WEIGHT)= 0.00(100.0%) 
 MO     2 (    2) HAS LZ(WEIGHT)= 0.00(100.0%) 
 MO     3 (    3) HAS LZ(WEIGHT)= 0.00(100.0%) 
 MO     4 (    4) HAS LZ(WEIGHT)= 0.00(100.0%) 
 MO     5 (    5) HAS LZ(WEIGHT)= 0.00(100.0%) 
 MO     6 (    6) HAS LZ(WEIGHT)= 0.00(100.0%) 
 MO     7 (    6) HAS LZ(WEIGHT)= 0.00(100.0%) 
 MO     8 (    7) HAS LZ(WEIGHT)= 0.00(100.0%) 
 MO     9 (    7) HAS LZ(WEIGHT)= 0.00(100.0%) 
 MO    10 (    8) HAS LZ(WEIGHT)= 0.00(100.0%) 
 MO    11 (    9) HAS LZ(WEIGHT)= 0.00(100.0%) 
 MO    12 (   10) HAS LZ(WEIGHT)= 0.00(100.0%) 
 MO    13 (   10) HAS LZ(WEIGHT)= 0.00(100.0%) 
 MO    14 (   11) HAS LZ(WEIGHT)= 0.00(100.0%) 
 MO    15 (   12) HAS LZ(WEIGHT)= 0.00(100.0%) 
 MO    16 (   12) HAS LZ(WEIGHT)= 0.00(100.0%) 
 MO    17 (   13) HAS LZ(WEIGHT)= 0.00(100.0%) 
 MO    18 (   14) HAS LZ(WEIGHT)= 0.00(100.0%) 
 MO    19 (   15) HAS LZ(WEIGHT)= 0.00(100.0%) 
 MO    20 (   15) HAS LZ(WEIGHT)= 0.00(100.0%) 
 MO    21 (   16) HAS LZ(WEIGHT)= 0.00(100.0%) 
 MO    22 (   16) HAS LZ(WEIGHT)= 0.00(100.0%) 
 MO    23 (   17) HAS LZ(WEIGHT)= 0.00(100.0%) 
 MO    24 (   17) HAS LZ(WEIGHT)= 0.00(100.0%) 
 MO    25 (   18) HAS LZ(WEIGHT)= 0.00(100.0%) 
 MO    26 (   19) HAS LZ(WEIGHT)= 0.00(100.0%) 
 MO    27 (   19) HAS LZ(WEIGHT)= 0.00(100.0%) 
 MO    28 (   20) HAS LZ(WEIGHT)= 0.00(100.0%) 
 MO    29 (   21) HAS LZ(WEIGHT)= 0.00(100.0%) 
 MO    30 (   21) HAS LZ(WEIGHT)= 0.00(100.0%) 
 MO    31 (   22) HAS LZ(WEIGHT)= 0.00(100.0%) 
 MO    32 (   23) HAS LZ(WEIGHT)= 0.00(100.0%) 
 MO    33 (   23) HAS LZ(WEIGHT)= 0.00(100.0%) 
 MO    34 (   24) HAS LZ(WEIGHT)= 0.00(100.0%) 
 MO    35 (   25) HAS LZ(WEIGHT)= 0.00(100.0%) 
 MO    36 (   26) HAS LZ(WEIGHT)= 0.00(100.0%) 
 MO    37 (   27) HAS LZ(WEIGHT)= 0.00(100.0%) 
 MO    38 (   28) HAS LZ(WEIGHT)= 0.00(100.0%) 
 ...... END OF RHF CALCULATION ......
 CPU     0: STEP CPU TIME=     0.00 TOTAL CPU TIME=          0.1 (      0.0 MIN)
 TOTAL WALL CLOCK TIME=          0.2 SECONDS, CPU UTILIZATION IS    72.43%
 ..... END OF 1-ELECTRON GRADIENT ......
 CPU     0: STEP CPU TIME=     0.00 TOTAL CPU TIME=          0.1 (      0.0 MIN)
 TOTAL WALL CLOCK TIME=          0.2 SECONDS, CPU UTILIZATION IS    71.96%
 ...... END OF 2-ELECTRON GRADIENT ......
 CPU     0: STEP CPU TIME=     0.00 TOTAL CPU TIME=          0.1 (      0.0 MIN)
 TOTAL WALL CLOCK TIME=          0.2 SECONDS, CPU UTILIZATION IS    69.22%

          NSERCH=  2     ENERGY=    -108.9707415

                                 -----------------------
                                 GRADIENT (HARTREE/BOHR)
                                 -----------------------
        ATOM     ZNUC       DE/DX         DE/DY         DE/DZ
 --------------------------------------------------------------
    1  N            7.0    -0.0745921     0.0000000     0.0000000
    2  N            7.0     0.0745921     0.0000000     0.0000000

          MAXIMUM GRADIENT = 0.0745921    RMS GRADIENT = 0.0430658

 NSERCH:   2  E=     -108.9707415147  GRAD. MAX=  0.0745921  R.M.S.=  0.0430658

          HESSIAN UPDATED USING THE BFGS FORMULA
             ACTUAL ENERGY CHANGE WAS  -0.0807557348
          PREDICTED ENERGY CHANGE WAS  -0.1084088078 RATIO=  0.745
          MIN SEARCH, CORRECT HESSIAN, TRYING PURE NR STEP
               NR STEP HAS LENGTH         =   0.016144
          RADIUS OF STEP TAKEN=   0.01614  CURRENT TRUST RADIUS=   0.15000

 BEGINNING GEOMETRY SEARCH POINT NSERCH=   3 ...

 COORDINATES OF SYMMETRY UNIQUE ATOMS (ANGS)
   ATOM   CHARGE       X              Y              Z
 ------------------------------------------------------------
 N           7.0  -0.5319301682   0.0000000000   0.0000000000
 COORDINATES OF ALL ATOMS ARE (ANGS)
   ATOM   CHARGE       X              Y              Z
 ------------------------------------------------------------
 N           7.0   0.5319301682  -0.0000000000   0.0000000000
 N           7.0  -0.5319301682   0.0000000000   0.0000000000

          INTERNUCLEAR DISTANCES (ANGS.)
          ------------------------------

                1 N          2 N     

   1 N       0.0000000    1.0638603 *
   2 N       1.0638603 *  0.0000000  

  * ... LESS THAN  3.000

 ...... END OF ONE-ELECTRON INTEGRALS ......
 CPU     0: STEP CPU TIME=     0.02 TOTAL CPU TIME=          0.1 (      0.0 MIN)
 TOTAL WALL CLOCK TIME=          0.2 SECONDS, CPU UTILIZATION IS    78.62%
 TOTAL NUMBER OF NONZERO TWO-ELECTRON INTEGRALS =               37617
          4 INTEGRAL RECORDS WERE STORED ON DISK FILE  8.
  ...... END OF TWO-ELECTRON INTEGRALS .....
 CPU     0: STEP CPU TIME=     0.00 TOTAL CPU TIME=          0.1 (      0.0 MIN)
 TOTAL WALL CLOCK TIME=          0.2 SECONDS, CPU UTILIZATION IS    77.16%

          --------------------------
                 RHF SCF CALCULATION
          --------------------------
     DENSITY MATRIX CONV=  2.00E-04

 ITER EX DEM     TOTAL ENERGY        E CHANGE  DENSITY CHANGE     ORB. GRAD
          ---------------START SECOND ORDER SCF---------------
   1  0  0     -108.9717244515  -108.9717244515   0.004570964   0.007802276
   2  1  0     -108.9718661615    -0.0001417100   0.003077374   0.001392500
   3  2  0     -108.9718754914    -0.0000093299   0.000561292   0.000437550
   4  3  0     -108.9718757099    -0.0000002185   0.000123041   0.000031032
   5  4  0     -108.9718757131    -0.0000000033   0.000017041   0.000004544
   6  5  0     -108.9718757133    -0.0000000001   0.000000951   0.000000899

          -----------------
          DENSITY CONVERGED
          -----------------
     TIME TO FORM FOCK OPERATORS=       0.0 SECONDS (       0.0 SEC/ITER)
     TIME TO SOLVE SCF EQUATIONS=       0.0 SECONDS (       0.0 SEC/ITER)

 FINAL RHF ENERGY IS     -108.9718757133 AFTER   6 ITERATIONS

 LZ VALUE ANALYSIS FOR THE MOS
 ----------------------------------------
 MO     1 (    1) HAS LZ(WEIGHT)= 0.00(100.0%) 
 MO     2 (    2) HAS LZ(WEIGHT)= 0.00(100.0%) 
 MO     3 (    3) HAS LZ(WEIGHT)= 0.00(100.0%) 
 MO     4 (    4) HAS LZ(WEIGHT)= 0.00(100.0%) 
 MO     5 (    5) HAS LZ(WEIGHT)= 0.00(100.0%) 
 MO     6 (    6) HAS LZ(WEIGHT)= 0.00(100.0%) 
 MO     7 (    6) HAS LZ(WEIGHT)= 0.00(100.0%) 
 MO     8 (    7) HAS LZ(WEIGHT)= 0.00(100.0%) 
 MO     9 (    7) HAS LZ(WEIGHT)= 0.00(100.0%) 
 MO    10 (    8) HAS LZ(WEIGHT)= 0.00(100.0%) 
 MO    11 (    9) HAS LZ(WEIGHT)= 0.00(100.0%) 
 MO    12 (   10) HAS LZ(WEIGHT)= 0.00(100.0%) 
 MO    13 (   10) HAS LZ(WEIGHT)= 0.00(100.0%) 
 MO    14 (   11) HAS LZ(WEIGHT)= 0.00(100.0%) 
 MO    15 (   12) HAS LZ(WEIGHT)= 0.00(100.0%) 
 MO    16 (   12) HAS LZ(WEIGHT)= 0.00(100.0%) 
 MO    17 (   13) HAS LZ(WEIGHT)= 0.00(100.0%) 
 MO    18 (   14) HAS LZ(WEIGHT)= 0.00(100.0%) 
 MO    19 (   15) HAS LZ(WEIGHT)= 0.00(100.0%) 
 MO    20 (   15) HAS LZ(WEIGHT)= 0.00(100.0%) 
 MO    21 (   16) HAS LZ(WEIGHT)= 0.00(100.0%) 
 MO    22 (   16) HAS LZ(WEIGHT)= 0.00(100.0%) 
 MO    23 (   17) HAS LZ(WEIGHT)= 0.00(100.0%) 
 MO    24 (   17) HAS LZ(WEIGHT)= 0.00(100.0%) 
 MO    25 (   18) HAS LZ(WEIGHT)= 0.00(100.0%) 
 MO    26 (   19) HAS LZ(WEIGHT)= 0.00(100.0%) 
 MO    27 (   19) HAS LZ(WEIGHT)= 0.00(100.0%) 
 MO    28 (   20) HAS LZ(WEIGHT)= 0.00(100.0%) 
 MO    29 (   21) HAS LZ(WEIGHT)= 0.00(100.0%) 
 MO    30 (   21) HAS LZ(WEIGHT)= 0.00(100.0%) 
 MO    31 (   22) HAS LZ(WEIGHT)= 0.00(100.0%) 
 MO    32 (   23) HAS LZ(WEIGHT)= 0.00(100.0%) 
 MO    33 (   23) HAS LZ(WEIGHT)= 0.00(100.0%) 
 MO    34 (   24) HAS LZ(WEIGHT)= 0.00(100.0%) 
 MO    35 (   25) HAS LZ(WEIGHT)= 0.00(100.0%) 
 MO    36 (   26) HAS LZ(WEIGHT)= 0.00(100.0%) 
 MO    37 (   27) HAS LZ(WEIGHT)= 0.00(100.0%) 
 MO    38 (   28) HAS LZ(WEIGHT)= 0.00(100.0%) 
 ...... END OF RHF CALCULATION ......
 CPU     0: STEP CPU TIME=     0.00 TOTAL CPU TIME=          0.1 (      0.0 MIN)
 TOTAL WALL CLOCK TIME=          0.2 SECONDS, CPU UTILIZATION IS    75.30%
 ..... END OF 1-ELECTRON GRADIENT ......
 CPU     0: STEP CPU TIME=     0.00 TOTAL CPU TIME=          0.1 (      0.0 MIN)
 TOTAL WALL CLOCK TIME=          0.2 SECONDS, CPU UTILIZATION IS    74.85%
 ...... END OF 2-ELECTRON GRADIENT ......
 CPU     0: STEP CPU TIME=     0.00 TOTAL CPU TIME=          0.1 (      0.0 MIN)
 TOTAL WALL CLOCK TIME=          0.2 SECONDS, CPU UTILIZATION IS    72.67%

          NSERCH=  3     ENERGY=    -108.9718757

                                 -----------------------
                                 GRADIENT (HARTREE/BOHR)
                                 -----------------------
        ATOM     ZNUC       DE/DX         DE/DY         DE/DZ
 --------------------------------------------------------------
    1  N            7.0    -0.0254142     0.0000000     0.0000000
    2  N            7.0     0.0254142     0.0000000     0.0000000

          MAXIMUM GRADIENT = 0.0254142    RMS GRADIENT = 0.0146729

 NSERCH:   3  E=     -108.9718757133  GRAD. MAX=  0.0254142  R.M.S.=  0.0146729

          HESSIAN UPDATED USING THE BFGS FORMULA
             ACTUAL ENERGY CHANGE WAS  -0.0011341986
          PREDICTED ENERGY CHANGE WAS  -0.0008514841 RATIO=  1.332
          MIN SEARCH, CORRECT HESSIAN, TRYING PURE NR STEP
               NR STEP HAS LENGTH         =   0.008343
          RADIUS OF STEP TAKEN=   0.00834  CURRENT TRUST RADIUS=   0.05000

 BEGINNING GEOMETRY SEARCH POINT NSERCH=   4 ...

 COORDINATES OF SYMMETRY UNIQUE ATOMS (ANGS)
   ATOM   CHARGE       X              Y              Z
 ------------------------------------------------------------
 N           7.0  -0.5350518611   0.0000000000   0.0000000000
 COORDINATES OF ALL ATOMS ARE (ANGS)
   ATOM   CHARGE       X              Y              Z
 ------------------------------------------------------------
 N           7.0   0.5350518611  -0.0000000000   0.0000000000
 N           7.0  -0.5350518611   0.0000000000   0.0000000000

          INTERNUCLEAR DISTANCES (ANGS.)
          ------------------------------

                1 N          2 N     

   1 N       0.0000000    1.0701037 *
   2 N       1.0701037 *  0.0000000  

  * ... LESS THAN  3.000

 ...... END OF ONE-ELECTRON INTEGRALS ......
 CPU     0: STEP CPU TIME=     0.00 TOTAL CPU TIME=          0.1 (      0.0 MIN)
 TOTAL WALL CLOCK TIME=          0.2 SECONDS, CPU UTILIZATION IS    72.25%
 TOTAL NUMBER OF NONZERO TWO-ELECTRON INTEGRALS =               37616
          4 INTEGRAL RECORDS WERE STORED ON DISK FILE  8.
  ...... END OF TWO-ELECTRON INTEGRALS .....
 CPU     0: STEP CPU TIME=     0.02 TOTAL CPU TIME=          0.1 (      0.0 MIN)
 TOTAL WALL CLOCK TIME=          0.2 SECONDS, CPU UTILIZATION IS    79.90%

          --------------------------
                 RHF SCF CALCULATION
          --------------------------
     DENSITY MATRIX CONV=  5.00E-05

 ITER EX DEM     TOTAL ENERGY        E CHANGE  DENSITY CHANGE     ORB. GRAD
          ---------------START SECOND ORDER SCF---------------
   1  0  0     -108.9719940746  -108.9719940746   0.002361868   0.003903088
   2  1  0     -108.9720309490    -0.0000368744   0.001576892   0.000709987
   3  2  0     -108.9720333779    -0.0000024290   0.000281251   0.000221124
   4  3  0     -108.9720334323    -0.0000000544   0.000063036   0.000015172
   5  4  0     -108.9720334331    -0.0000000008   0.000008742   0.000002358
   6  5  0     -108.9720334331    -0.0000000000   0.000000473   0.000000453

          -----------------
          DENSITY CONVERGED
          -----------------
     TIME TO FORM FOCK OPERATORS=       0.0 SECONDS (       0.0 SEC/ITER)
     TIME TO SOLVE SCF EQUATIONS=       0.0 SECONDS (       0.0 SEC/ITER)

 FINAL RHF ENERGY IS     -108.9720334331 AFTER   6 ITERATIONS

 LZ VALUE ANALYSIS FOR THE MOS
 ----------------------------------------
 MO     1 (    1) HAS LZ(WEIGHT)= 0.00(100.0%) 
 MO     2 (    2) HAS LZ(WEIGHT)= 0.00(100.0%) 
 MO     3 (    3) HAS LZ(WEIGHT)= 0.00(100.0%) 
 MO     4 (    4) HAS LZ(WEIGHT)= 0.00(100.0%) 
 MO     5 (    5) HAS LZ(WEIGHT)= 0.00(100.0%) 
 MO     6 (    6) HAS LZ(WEIGHT)= 0.00(100.0%) 
 MO     7 (    6) HAS LZ(WEIGHT)= 0.00(100.0%) 
 MO     8 (    7) HAS LZ(WEIGHT)= 0.00(100.0%) 
 MO     9 (    7) HAS LZ(WEIGHT)= 0.00(100.0%) 
 MO    10 (    8) HAS LZ(WEIGHT)= 0.00(100.0%) 
 MO    11 (    9) HAS LZ(WEIGHT)= 0.00(100.0%) 
 MO    12 (   10) HAS LZ(WEIGHT)= 0.00(100.0%) 
 MO    13 (   10) HAS LZ(WEIGHT)= 0.00(100.0%) 
 MO    14 (   11) HAS LZ(WEIGHT)= 0.00(100.0%) 
 MO    15 (   12) HAS LZ(WEIGHT)= 0.00(100.0%) 
 MO    16 (   12) HAS LZ(WEIGHT)= 0.00(100.0%) 
 MO    17 (   13) HAS LZ(WEIGHT)= 0.00(100.0%) 
 MO    18 (   14) HAS LZ(WEIGHT)= 0.00(100.0%) 
 MO    19 (   15) HAS LZ(WEIGHT)= 0.00(100.0%) 
 MO    20 (   15) HAS LZ(WEIGHT)= 0.00(100.0%) 
 MO    21 (   16) HAS LZ(WEIGHT)= 0.00(100.0%) 
 MO    22 (   16) HAS LZ(WEIGHT)= 0.00(100.0%) 
 MO    23 (   17) HAS LZ(WEIGHT)= 0.00(100.0%) 
 MO    24 (   17) HAS LZ(WEIGHT)= 0.00(100.0%) 
 MO    25 (   18) HAS LZ(WEIGHT)= 0.00(100.0%) 
 MO    26 (   19) HAS LZ(WEIGHT)= 0.00(100.0%) 
 MO    27 (   19) HAS LZ(WEIGHT)= 0.00(100.0%) 
 MO    28 (   20) HAS LZ(WEIGHT)= 0.00(100.0%) 
 MO    29 (   21) HAS LZ(WEIGHT)= 0.00(100.0%) 
 MO    30 (   21) HAS LZ(WEIGHT)= 0.00(100.0%) 
 MO    31 (   22) HAS LZ(WEIGHT)= 0.00(100.0%) 
 MO    32 (   23) HAS LZ(WEIGHT)= 0.00(100.0%) 
 MO    33 (   23) HAS LZ(WEIGHT)= 0.00(100.0%) 
 MO    34 (   24) HAS LZ(WEIGHT)= 0.00(100.0%) 
 MO    35 (   25) HAS LZ(WEIGHT)= 0.00(100.0%) 
 MO    36 (   26) HAS LZ(WEIGHT)= 0.00(100.0%) 
 MO    37 (   27) HAS LZ(WEIGHT)= 0.00(100.0%) 
 MO    38 (   28) HAS LZ(WEIGHT)= 0.00(100.0%) 
 ...... END OF RHF CALCULATION ......
 CPU     0: STEP CPU TIME=     0.00 TOTAL CPU TIME=          0.1 (      0.0 MIN)
 TOTAL WALL CLOCK TIME=          0.2 SECONDS, CPU UTILIZATION IS    77.69%
 ..... END OF 1-ELECTRON GRADIENT ......
 CPU     0: STEP CPU TIME=     0.00 TOTAL CPU TIME=          0.1 (      0.0 MIN)
 TOTAL WALL CLOCK TIME=          0.2 SECONDS, CPU UTILIZATION IS    77.69%
 ...... END OF 2-ELECTRON GRADIENT ......
 CPU     0: STEP CPU TIME=     0.00 TOTAL CPU TIME=          0.1 (      0.0 MIN)
 TOTAL WALL CLOCK TIME=          0.2 SECONDS, CPU UTILIZATION IS    74.80%

          NSERCH=  4     ENERGY=    -108.9720334

                                 -----------------------
                                 GRADIENT (HARTREE/BOHR)
                                 -----------------------
        ATOM     ZNUC       DE/DX         DE/DY         DE/DZ
 --------------------------------------------------------------
    1  N            7.0    -0.0014860     0.0000000     0.0000000
    2  N            7.0     0.0014860     0.0000000     0.0000000

          MAXIMUM GRADIENT = 0.0014860    RMS GRADIENT = 0.0008579

 NSERCH:   4  E=     -108.9720334331  GRAD. MAX=  0.0014860  R.M.S.=  0.0008579

          HESSIAN UPDATED USING THE BFGS FORMULA
             ACTUAL ENERGY CHANGE WAS  -0.0001577199
          PREDICTED ENERGY CHANGE WAS  -0.0001499219 RATIO=  1.052
          MIN SEARCH, CORRECT HESSIAN, TRYING PURE NR STEP
               NR STEP HAS LENGTH         =   0.000518
          RADIUS OF STEP TAKEN=   0.00052  CURRENT TRUST RADIUS=   0.05000

 BEGINNING GEOMETRY SEARCH POINT NSERCH=   5 ...

 COORDINATES OF SYMMETRY UNIQUE ATOMS (ANGS)
   ATOM   CHARGE       X              Y              Z
 ------------------------------------------------------------
 N           7.0  -0.5352457215   0.0000000000   0.0000000000
 COORDINATES OF ALL ATOMS ARE (ANGS)
   ATOM   CHARGE       X              Y              Z
 ------------------------------------------------------------
 N           7.0   0.5352457215  -0.0000000000   0.0000000000
 N           7.0  -0.5352457215   0.0000000000   0.0000000000

          INTERNUCLEAR DISTANCES (ANGS.)
          ------------------------------

                1 N          2 N     

   1 N       0.0000000    1.0704914 *
   2 N       1.0704914 *  0.0000000  

  * ... LESS THAN  3.000

 ...... END OF ONE-ELECTRON INTEGRALS ......
 CPU     0: STEP CPU TIME=     0.00 TOTAL CPU TIME=          0.1 (      0.0 MIN)
 TOTAL WALL CLOCK TIME=          0.2 SECONDS, CPU UTILIZATION IS    74.80%
 TOTAL NUMBER OF NONZERO TWO-ELECTRON INTEGRALS =               37616
          4 INTEGRAL RECORDS WERE STORED ON DISK FILE  8.
  ...... END OF TWO-ELECTRON INTEGRALS .....
 CPU     0: STEP CPU TIME=     0.02 TOTAL CPU TIME=          0.2 (      0.0 MIN)
 TOTAL WALL CLOCK TIME=          0.2 SECONDS, CPU UTILIZATION IS    81.81%

          --------------------------
                 RHF SCF CALCULATION
          --------------------------
     DENSITY MATRIX CONV=  1.00E-05

 ITER EX DEM     TOTAL ENERGY        E CHANGE  DENSITY CHANGE     ORB. GRAD
          ---------------START SECOND ORDER SCF---------------
   1  0  0     -108.9720338387  -108.9720338387   0.000147249   0.000239271
   2  1  0     -108.9720339796    -0.0000001409   0.000097592   0.000043464
   3  2  0     -108.9720339888    -0.0000000093   0.000017315   0.000013557
   4  3  0     -108.9720339890    -0.0000000002   0.000003991   0.000000886
   5  4  0     -108.9720339890    -0.0000000000   0.000000553   0.000000151

          -----------------
          DENSITY CONVERGED
          -----------------
     TIME TO FORM FOCK OPERATORS=       0.0 SECONDS (       0.0 SEC/ITER)
     TIME TO SOLVE SCF EQUATIONS=       0.0 SECONDS (       0.0 SEC/ITER)

 FINAL RHF ENERGY IS     -108.9720339890 AFTER   5 ITERATIONS

 LZ VALUE ANALYSIS FOR THE MOS
 ----------------------------------------
 MO     1 (    1) HAS LZ(WEIGHT)= 0.00(100.0%) 
 MO     2 (    2) HAS LZ(WEIGHT)= 0.00(100.0%) 
 MO     3 (    3) HAS LZ(WEIGHT)= 0.00(100.0%) 
 MO     4 (    4) HAS LZ(WEIGHT)= 0.00(100.0%) 
 MO     5 (    5) HAS LZ(WEIGHT)= 0.00(100.0%) 
 MO     6 (    6) HAS LZ(WEIGHT)= 0.00(100.0%) 
 MO     7 (    6) HAS LZ(WEIGHT)= 0.00(100.0%) 
 MO     8 (    7) HAS LZ(WEIGHT)= 0.00(100.0%) 
 MO     9 (    7) HAS LZ(WEIGHT)= 0.00(100.0%) 
 MO    10 (    8) HAS LZ(WEIGHT)= 0.00(100.0%) 
 MO    11 (    9) HAS LZ(WEIGHT)= 0.00(100.0%) 
 MO    12 (   10) HAS LZ(WEIGHT)= 0.00(100.0%) 
 MO    13 (   10) HAS LZ(WEIGHT)= 0.00(100.0%) 
 MO    14 (   11) HAS LZ(WEIGHT)= 0.00(100.0%) 
 MO    15 (   12) HAS LZ(WEIGHT)= 0.00(100.0%) 
 MO    16 (   12) HAS LZ(WEIGHT)= 0.00(100.0%) 
 MO    17 (   13) HAS LZ(WEIGHT)= 0.00(100.0%) 
 MO    18 (   14) HAS LZ(WEIGHT)= 0.00(100.0%) 
 MO    19 (   15) HAS LZ(WEIGHT)= 0.00(100.0%) 
 MO    20 (   15) HAS LZ(WEIGHT)= 0.00(100.0%) 
 MO    21 (   16) HAS LZ(WEIGHT)= 0.00(100.0%) 
 MO    22 (   16) HAS LZ(WEIGHT)= 0.00(100.0%) 
 MO    23 (   17) HAS LZ(WEIGHT)= 0.00(100.0%) 
 MO    24 (   17) HAS LZ(WEIGHT)= 0.00(100.0%) 
 MO    25 (   18) HAS LZ(WEIGHT)= 0.00(100.0%) 
 MO    26 (   19) HAS LZ(WEIGHT)= 0.00(100.0%) 
 MO    27 (   19) HAS LZ(WEIGHT)= 0.00(100.0%) 
 MO    28 (   20) HAS LZ(WEIGHT)= 0.00(100.0%) 
 MO    29 (   21) HAS LZ(WEIGHT)= 0.00(100.0%) 
 MO    30 (   21) HAS LZ(WEIGHT)= 0.00(100.0%) 
 MO    31 (   22) HAS LZ(WEIGHT)= 0.00(100.0%) 
 MO    32 (   23) HAS LZ(WEIGHT)= 0.00(100.0%) 
 MO    33 (   23) HAS LZ(WEIGHT)= 0.00(100.0%) 
 MO    34 (   24) HAS LZ(WEIGHT)= 0.00(100.0%) 
 MO    35 (   25) HAS LZ(WEIGHT)= 0.00(100.0%) 
 MO    36 (   26) HAS LZ(WEIGHT)= 0.00(100.0%) 
 MO    37 (   27) HAS LZ(WEIGHT)= 0.00(100.0%) 
 MO    38 (   28) HAS LZ(WEIGHT)= 0.00(100.0%) 
 ...... END OF RHF CALCULATION ......
 CPU     0: STEP CPU TIME=     0.00 TOTAL CPU TIME=          0.2 (      0.0 MIN)
 TOTAL WALL CLOCK TIME=          0.2 SECONDS, CPU UTILIZATION IS    80.13%
 ..... END OF 1-ELECTRON GRADIENT ......
 CPU     0: STEP CPU TIME=     0.00 TOTAL CPU TIME=          0.2 (      0.0 MIN)
 TOTAL WALL CLOCK TIME=          0.2 SECONDS, CPU UTILIZATION IS    79.72%
 ...... END OF 2-ELECTRON GRADIENT ......
 CPU     0: STEP CPU TIME=     0.00 TOTAL CPU TIME=          0.2 (      0.0 MIN)
 TOTAL WALL CLOCK TIME=          0.2 SECONDS, CPU UTILIZATION IS    77.35%

          NSERCH=  5     ENERGY=    -108.9720340

                                 -----------------------
                                 GRADIENT (HARTREE/BOHR)
                                 -----------------------
        ATOM     ZNUC       DE/DX         DE/DY         DE/DZ
 --------------------------------------------------------------
    1  N            7.0    -0.0000321     0.0000000     0.0000000
    2  N            7.0     0.0000321     0.0000000     0.0000000

          MAXIMUM GRADIENT = 0.0000321    RMS GRADIENT = 0.0000186

 NSERCH:   5  E=     -108.9720339890  GRAD. MAX=  0.0000321  R.M.S.=  0.0000186


      ***** EQUILIBRIUM GEOMETRY LOCATED *****
 COORDINATES OF SYMMETRY UNIQUE ATOMS (ANGS)
   ATOM   CHARGE       X              Y              Z
 ------------------------------------------------------------
 N           7.0  -0.5352457215   0.0000000000   0.0000000000
 COORDINATES OF ALL ATOMS ARE (ANGS)
   ATOM   CHARGE       X              Y              Z
 ------------------------------------------------------------
 N           7.0   0.5352457215  -0.0000000000   0.0000000000
 N           7.0  -0.5352457215   0.0000000000   0.0000000000

          INTERNUCLEAR DISTANCES (ANGS.)
          ------------------------------

                1 N          2 N     

   1 N       0.0000000    1.0704914 *
   2 N       1.0704914 *  0.0000000  

  * ... LESS THAN  3.000


          NUCLEAR ENERGY    =       24.2222255785
          ELECTRONIC ENERGY =     -133.1942595675
          TOTAL ENERGY      =     -108.9720339890

          ------------------
          MOLECULAR ORBITALS
          ------------------

                      1          2          3          4          5
                  -15.6735   -15.6693    -1.4941    -0.7678    -0.6345
                     A1         B1         A1         B1         A1  
    1  N  1  S   -0.394229   0.394477   0.088247   0.079159   0.028054
    2  N  1  S   -0.330787   0.331189   0.144012   0.133889   0.048063
    3  N  1  X    0.001761  -0.001382   0.108629  -0.099816  -0.212786
    4  N  1  Y    0.000000   0.000000   0.000000   0.000000   0.000000
    5  N  1  Z    0.000000   0.000000   0.000000   0.000000   0.000000
    6  N  1  S   -0.003935   0.002880  -0.386669  -0.386363  -0.127572
    7  N  1  X   -0.000070   0.001538   0.146023  -0.153089  -0.306269
    8  N  1  Y    0.000000   0.000000   0.000000   0.000000   0.000000
    9  N  1  Z    0.000000   0.000000   0.000000   0.000000   0.000000
   10  N  1  S   -0.000201   0.000663  -0.151539  -0.451046  -0.318640
   11  N  1  X    0.000249  -0.000410   0.028103  -0.073528  -0.186269
   12  N  1  Y    0.000000   0.000000   0.000000   0.000000   0.000000
   13  N  1  Z    0.000000   0.000000   0.000000   0.000000   0.000000
   14  N  1 XX   -0.000214  -0.000660  -0.031429   0.009586   0.028033
   15  N  1 YY    0.000611  -0.000448   0.012676  -0.004666  -0.010684
   16  N  1 ZZ    0.000611  -0.000448   0.012676  -0.004666  -0.010684
   17  N  1 XY    0.000000   0.000000   0.000000   0.000000   0.000000
   18  N  1 XZ    0.000000   0.000000   0.000000   0.000000   0.000000
   19  N  1 YZ    0.000000   0.000000   0.000000   0.000000   0.000000
   20  N  2  S   -0.394229  -0.394477   0.088247  -0.079159   0.028054
   21  N  2  S   -0.330787  -0.331189   0.144012  -0.133889   0.048063
   22  N  2  X   -0.001761  -0.001382  -0.108629  -0.099816   0.212786
   23  N  2  Y    0.000000   0.000000   0.000000   0.000000   0.000000
   24  N  2  Z    0.000000   0.000000   0.000000   0.000000   0.000000
   25  N  2  S   -0.003935  -0.002880  -0.386669   0.386363  -0.127572
   26  N  2  X    0.000070   0.001538  -0.146023  -0.153089   0.306269
   27  N  2  Y    0.000000   0.000000   0.000000   0.000000   0.000000
   28  N  2  Z    0.000000   0.000000   0.000000   0.000000   0.000000
   29  N  2  S   -0.000201  -0.000663  -0.151539   0.451046  -0.318640
   30  N  2  X   -0.000249  -0.000410  -0.028103  -0.073528   0.186269
   31  N  2  Y    0.000000   0.000000   0.000000   0.000000   0.000000
   32  N  2  Z    0.000000   0.000000   0.000000   0.000000   0.000000
   33  N  2 XX   -0.000214   0.000660  -0.031429  -0.009586   0.028033
   34  N  2 YY    0.000611   0.000448   0.012676   0.004666  -0.010684
   35  N  2 ZZ    0.000611   0.000448   0.012676   0.004666  -0.010684
   36  N  2 XY    0.000000   0.000000   0.000000   0.000000   0.000000
   37  N  2 XZ    0.000000   0.000000   0.000000   0.000000   0.000000
   38  N  2 YZ    0.000000   0.000000   0.000000   0.000000   0.000000

                      6          7          8          9         10
                   -0.6245    -0.6245     0.1804     0.1804     0.5624
                     A1         B2         B1         A2         B1  
    1  N  1  S    0.000000   0.000000   0.000000   0.000000   0.047497
    2  N  1  S    0.000000   0.000000   0.000000   0.000000   0.083708
    3  N  1  X    0.000000   0.000000   0.000000   0.000000   0.022569
    4  N  1  Y    0.000000  -0.191388   0.000000   0.196586   0.000000
    5  N  1  Z   -0.191388   0.000000  -0.196586   0.000000   0.000000
    6  N  1  S    0.000000   0.000000   0.000000   0.000000  -0.200762
    7  N  1  X    0.000000   0.000000   0.000000   0.000000  -0.115381
    8  N  1  Y    0.000000  -0.309497   0.000000   0.283303   0.000000
    9  N  1  Z   -0.309497   0.000000  -0.283303   0.000000   0.000000
   10  N  1  S    0.000000   0.000000   0.000000   0.000000  -4.656351
   11  N  1  X    0.000000   0.000000   0.000000   0.000000   2.903893
   12  N  1  Y    0.000000  -0.221821   0.000000   0.722611   0.000000
   13  N  1  Z   -0.221821   0.000000  -0.722611   0.000000   0.000000
   14  N  1 XX    0.000000   0.000000   0.000000   0.000000   0.026886
   15  N  1 YY    0.000000   0.000000   0.000000   0.000000  -0.002987
   16  N  1 ZZ    0.000000   0.000000   0.000000   0.000000  -0.002987
   17  N  1 XY    0.000000   0.046248   0.000000   0.017400   0.000000
   18  N  1 XZ    0.046248   0.000000  -0.017400   0.000000   0.000000
   19  N  1 YZ    0.000000   0.000000   0.000000   0.000000   0.000000
   20  N  2  S    0.000000   0.000000   0.000000   0.000000  -0.047497
   21  N  2  S    0.000000   0.000000   0.000000   0.000000  -0.083708
   22  N  2  X    0.000000   0.000000   0.000000   0.000000   0.022569
   23  N  2  Y    0.000000  -0.191388   0.000000  -0.196586   0.000000
   24  N  2  Z   -0.191388   0.000000   0.196586   0.000000   0.000000
   25  N  2  S    0.000000   0.000000   0.000000   0.000000   0.200762
   26  N  2  X    0.000000   0.000000   0.000000   0.000000  -0.115381
   27  N  2  Y    0.000000  -0.309497   0.000000  -0.283303   0.000000
   28  N  2  Z   -0.309497   0.000000   0.283303   0.000000   0.000000
   29  N  2  S    0.000000   0.000000   0.000000   0.000000   4.656351
   30  N  2  X    0.000000   0.000000   0.000000   0.000000   2.903893
   31  N  2  Y    0.000000  -0.221821   0.000000  -0.722611   0.000000
   32  N  2  Z   -0.221821   0.000000   0.722611   0.000000   0.000000
   33  N  2 XX    0.000000   0.000000   0.000000   0.000000  -0.026886
   34  N  2 YY    0.000000   0.000000   0.000000   0.000000   0.002987
   35  N  2 ZZ    0.000000   0.000000   0.000000   0.000000   0.002987
   36  N  2 XY    0.000000  -0.046248   0.000000   0.017400   0.000000
   37  N  2 XZ   -0.046248   0.000000  -0.017400   0.000000   0.000000
   38  N  2 YZ    0.000000   0.000000   0.000000   0.000000   0.000000

                     11         12         13         14         15
                    0.6656     0.7003     0.7003     0.7333     0.9047
                     A1         A1         B2         A1         B1  
    1  N  1  S   -0.031130   0.000000   0.000000  -0.058185   0.000000
    2  N  1  S   -0.034694   0.000000   0.000000  -0.072287   0.000000
    3  N  1  X   -0.053611   0.000000   0.000000   0.101254   0.000000
    4  N  1  Y    0.000000   0.000000  -0.133737   0.000000   0.000000
    5  N  1  Z    0.000000   0.133737   0.000000   0.000000  -0.190546
    6  N  1  S    0.542231   0.000000   0.000000   0.681143   0.000000
    7  N  1  X   -0.291008   0.000000   0.000000   0.351694   0.000000
    8  N  1  Y    0.000000   0.000000  -0.571007   0.000000   0.000000
    9  N  1  Z    0.000000   0.571007   0.000000   0.000000  -0.675276
   10  N  1  S   -0.368123   0.000000   0.000000  -0.958091   0.000000
   11  N  1  X    0.966180   0.000000   0.000000  -0.523066   0.000000
   12  N  1  Y    0.000000   0.000000   0.685307   0.000000   0.000000
   13  N  1  Z    0.000000  -0.685307   0.000000   0.000000   1.287778
   14  N  1 XX    0.118437   0.000000   0.000000   0.139981   0.000000
   15  N  1 YY    0.085404   0.000000   0.000000   0.134626   0.000000
   16  N  1 ZZ    0.085404   0.000000   0.000000   0.134626   0.000000
   17  N  1 XY    0.000000   0.000000   0.059601   0.000000   0.000000
   18  N  1 XZ    0.000000  -0.059601   0.000000   0.000000  -0.021193
   19  N  1 YZ    0.000000   0.000000   0.000000   0.000000   0.000000
   20  N  2  S   -0.031130   0.000000   0.000000  -0.058185   0.000000
   21  N  2  S   -0.034694   0.000000   0.000000  -0.072287   0.000000
   22  N  2  X    0.053611   0.000000   0.000000  -0.101254   0.000000
   23  N  2  Y    0.000000   0.000000  -0.133737   0.000000   0.000000
   24  N  2  Z    0.000000   0.133737   0.000000   0.000000   0.190546
   25  N  2  S    0.542231   0.000000   0.000000   0.681143   0.000000
   26  N  2  X    0.291008   0.000000   0.000000  -0.351694   0.000000
   27  N  2  Y    0.000000   0.000000  -0.571007   0.000000   0.000000
   28  N  2  Z    0.000000   0.571007   0.000000   0.000000   0.675276
   29  N  2  S   -0.368123   0.000000   0.000000  -0.958091   0.000000
   30  N  2  X   -0.966180   0.000000   0.000000   0.523066   0.000000
   31  N  2  Y    0.000000   0.000000   0.685307   0.000000   0.000000
   32  N  2  Z    0.000000  -0.685307   0.000000   0.000000  -1.287778
   33  N  2 XX    0.118437   0.000000   0.000000   0.139981   0.000000
   34  N  2 YY    0.085404   0.000000   0.000000   0.134626   0.000000
   35  N  2 ZZ    0.085404   0.000000   0.000000   0.134626   0.000000
   36  N  2 XY    0.000000   0.000000  -0.059601   0.000000   0.000000
   37  N  2 XZ    0.000000   0.059601   0.000000   0.000000  -0.021193
   38  N  2 YZ    0.000000   0.000000   0.000000   0.000000   0.000000

                     16         17
                    0.9047     1.0084
                     A2         B1  
    1  N  1  S    0.000000   0.022965
    2  N  1  S    0.000000   0.013691
    3  N  1  X    0.000000  -0.169934
    4  N  1  Y    0.190546   0.000000
    5  N  1  Z    0.000000   0.000000
    6  N  1  S    0.000000  -0.607550
    7  N  1  X    0.000000  -0.605674
    8  N  1  Y    0.675276   0.000000
    9  N  1  Z    0.000000   0.000000
   10  N  1  S    0.000000   5.237586
   11  N  1  X    0.000000  -1.843264
   12  N  1  Y   -1.287778   0.000000
   13  N  1  Z    0.000000   0.000000
   14  N  1 XX    0.000000  -0.168991
   15  N  1 YY    0.000000  -0.118233
   16  N  1 ZZ    0.000000  -0.118233
   17  N  1 XY    0.021193   0.000000
   18  N  1 XZ    0.000000   0.000000
   19  N  1 YZ    0.000000   0.000000
   20  N  2  S    0.000000  -0.022965
   21  N  2  S    0.000000  -0.013691
   22  N  2  X    0.000000  -0.169934
   23  N  2  Y   -0.190546   0.000000
   24  N  2  Z    0.000000   0.000000
   25  N  2  S    0.000000   0.607550
   26  N  2  X    0.000000  -0.605674
   27  N  2  Y   -0.675276   0.000000
   28  N  2  Z    0.000000   0.000000
   29  N  2  S    0.000000  -5.237586
   30  N  2  X    0.000000  -1.843264
   31  N  2  Y    1.287778   0.000000
   32  N  2  Z    0.000000   0.000000
   33  N  2 XX    0.000000   0.168991
   34  N  2 YY    0.000000   0.118233
   35  N  2 ZZ    0.000000   0.118233
   36  N  2 XY    0.021193   0.000000
   37  N  2 XZ    0.000000   0.000000
   38  N  2 YZ    0.000000   0.000000

     ----------------------------------------------------------------
     PROPERTY VALUES FOR THE RHF   SELF-CONSISTENT FIELD WAVEFUNCTION
     ----------------------------------------------------------------

          -----------------
          ENERGY COMPONENTS
          -----------------

         WAVEFUNCTION NORMALIZATION =       1.0000000000

                ONE ELECTRON ENERGY =    -195.4119999290
                TWO ELECTRON ENERGY =      62.2177403615
           NUCLEAR REPULSION ENERGY =      24.2222255785
                                      ------------------
                       TOTAL ENERGY =    -108.9720339890

 ELECTRON-ELECTRON POTENTIAL ENERGY =      62.2177403615
  NUCLEUS-ELECTRON POTENTIAL ENERGY =    -304.3726965718
   NUCLEUS-NUCLEUS POTENTIAL ENERGY =      24.2222255785
                                      ------------------
             TOTAL POTENTIAL ENERGY =    -217.9327306318
               TOTAL KINETIC ENERGY =     108.9606966428
                 VIRIAL RATIO (V/T) =       2.0001040499

  ...... PI ENERGY ANALYSIS ......

 ENERGY ANALYSIS:
            FOCK ENERGY=    -70.9765184367
          BARE H ENERGY=   -195.4119999290
     ELECTRONIC ENERGY =   -133.1942591828
         KINETIC ENERGY=    108.9606966428
          N-N REPULSION=     24.2222255785
           TOTAL ENERGY=   -108.9720336044
        SIGMA PART(1+2)=   -115.6889085606
               (K,V1,2)=    102.3921219385   -265.2914477975     47.2104172984
           PI PART(1+2)=    -17.5053506222
               (K,V1,2)=      6.5685747043    -39.0812487743     15.0073234478
  SIGMA SKELETON, ERROR=    -91.4666829822      0.0000000000
             MIXED PART= 0.00000E+00 0.00000E+00 0.00000E+00 0.00000E+00
 ...... END OF PI ENERGY ANALYSIS ......

          ---------------------------------------
          MULLIKEN AND LOWDIN POPULATION ANALYSES
          ---------------------------------------

     ATOMIC MULLIKEN POPULATION IN EACH MOLECULAR ORBITAL

                      1          2          3          4          5

                  2.000000   2.000000   2.000000   2.000000   2.000000

    1             1.000000   1.000000   1.000000   1.000000   1.000000
    2             1.000000   1.000000   1.000000   1.000000   1.000000

                      6          7

                  2.000000   2.000000

    1             1.000000   1.000000
    2             1.000000   1.000000

               ----- POPULATIONS IN EACH AO -----
                             MULLIKEN      LOWDIN
              1  N  1  S      1.09530     1.04145
              2  N  1  S      0.89886     0.92229
              3  N  1  X      0.33227     0.33149
              4  N  1  Y      0.18463     0.18561
              5  N  1  Z      0.18463     0.18561
              6  N  1  S      0.96295     0.55278
              7  N  1  X      0.66949     0.66776
              8  N  1  Y      0.46512     0.43430
              9  N  1  Z      0.46512     0.43430
             10  N  1  S      0.82831     0.50101
             11  N  1  X      0.19115     0.38399
             12  N  1  Y      0.32856     0.35321
             13  N  1  Z      0.32856     0.35321
             14  N  1 XX      0.02908     0.23308
             15  N  1 YY     -0.00370     0.18308
             16  N  1 ZZ     -0.00370     0.18308
             17  N  1 XY      0.02169     0.02689
             18  N  1 XZ      0.02169     0.02689
             19  N  1 YZ      0.00000     0.00000
             20  N  2  S      1.09530     1.04145
             21  N  2  S      0.89886     0.92229
             22  N  2  X      0.33227     0.33149
             23  N  2  Y      0.18463     0.18561
             24  N  2  Z      0.18463     0.18561
             25  N  2  S      0.96295     0.55278
             26  N  2  X      0.66949     0.66776
             27  N  2  Y      0.46512     0.43430
             28  N  2  Z      0.46512     0.43430
             29  N  2  S      0.82831     0.50101
             30  N  2  X      0.19115     0.38399
             31  N  2  Y      0.32856     0.35321
             32  N  2  Z      0.32856     0.35321
             33  N  2 XX      0.02908     0.23308
             34  N  2 YY     -0.00370     0.18308
             35  N  2 ZZ     -0.00370     0.18308
             36  N  2 XY      0.02169     0.02689
             37  N  2 XZ      0.02169     0.02689
             38  N  2 YZ      0.00000     0.00000

          ----- MULLIKEN ATOMIC OVERLAP POPULATIONS -----
          (OFF-DIAGONAL ELEMENTS NEED TO BE MULTIPLIED BY 2)

             1           2

    1    6.3526353
    2    0.6473647   6.3526353

          TOTAL MULLIKEN AND LOWDIN ATOMIC POPULATIONS
       ATOM         MULL.POP.    CHARGE          LOW.POP.     CHARGE
    1 N             7.000000    0.000000         7.000000    0.000000
    2 N             7.000000    0.000000         7.000000    0.000000

          -------------------------------
          BOND ORDER AND VALENCE ANALYSIS     BOND ORDER THRESHOLD=0.050
          -------------------------------

                   BOND                       BOND                       BOND
  ATOM PAIR DIST  ORDER      ATOM PAIR DIST  ORDER      ATOM PAIR DIST  ORDER
    1   2  1.070  2.785

                       TOTAL       BONDED        FREE
      ATOM            VALENCE     VALENCE     VALENCE
    1 N                 2.785       2.785       0.000
    2 N                 2.785       2.785      -0.000

          ---------------------
          ELECTROSTATIC MOMENTS
          ---------------------

 POINT   1           X           Y           Z (BOHR)    CHARGE
                 0.000000   -0.000000    0.000000       -0.00 (A.U.)
         DX          DY          DZ         /D/  (DEBYE)
    -0.000000   -0.000000    0.000000    0.000000
 ...... END OF PROPERTY EVALUATION ......
 CPU     0: STEP CPU TIME=     0.02 TOTAL CPU TIME=          0.2 (      0.0 MIN)
 TOTAL WALL CLOCK TIME=          0.2 SECONDS, CPU UTILIZATION IS    83.43%
  $VIB   
          IVIB=   0 IATOM=   0 ICOORD=   0 E=     -108.9720339890
 -3.214655195E-05 0.000000000E+00 0.000000000E+00 3.214655195E-05 0.000000000E+00
  0.000000000E+00
 -2.257541709E-15-1.091802994E-16 0.000000000E+00
 ......END OF GEOMETRY SEARCH......
 CPU     0: STEP CPU TIME=     0.00 TOTAL CPU TIME=          0.2 (      0.0 MIN)
 TOTAL WALL CLOCK TIME=          0.2 SECONDS, CPU UTILIZATION IS    83.03%
                987971  WORDS OF DYNAMIC MEMORY USED
 EXECUTION OF GAMESS TERMINATED NORMALLY 18:53:13 16-MAR-2023    
 DDI: 263640 bytes (0.3 MB / 0 MWords) used by master data server.

 ----------------------------------------
 CPU timing information for all processes
 ========================================
 0: 0.078125 + 0.156250 = 0.234375
 1: 0.140625 + 0.140625 = 0.281250
 2: 0.578125 + 1.734375 = 2.312500
 3: 0.765625 + 1.546875 = 2.312500
 ----------------------------------------
           Disk usage (in bytes)       
 ========================================
09/25/2022  11:27 AM               202 N2_6-311Gd.F05
03/16/2023  06:53 PM           360,032 N2_6-311Gd.F08
03/16/2023  06:53 PM           360,032 N2_6-311Gd.F08.001
03/16/2023  06:53 PM         6,805,760 N2_6-311Gd.F10
03/16/2023  06:53 PM            18,157 N2_6-311Gd.GMS.ENV
03/16/2023  06:53 PM               132 N2_6-311Gd.processes.mpd
 ----------------------------------------
            Local date and time          
 ========================================
Thu 03/16/2023 - 18:53:15.50                          
